<?xml version="1.0" encoding="UTF-8"?>

<!-- generated on 12/04/19 20:20:21 by Eclipse SUMO GUI Version 1.3.1
<configuration xmlns:xsi="http://www.w3.org/2001/XMLSchema-instance" xsi:noNamespaceSchemaLocation="http://sumo.dlr.de/xsd/sumoConfiguration.xsd">

    <input>
        <net-file value="../cfg7/intersection.net.xml"/>
        <route-files value="../cfg7/intersection.rou.xml"/>
        <additional-files value="../cfg7/intersection.det.xml"/>
    </input>

    <output>
        <tripinfo-output value="../result/tripinfo7.xml"/>
    </output>

    <time>
        <begin value="0"/>
        <end value="3800"/>
        <step-length value="0.1"/>
    </time>

    <processing>
        <collision.action value="none"/>
    </processing>

    <emissions>
        <device.emissions.probability value="1"/>
    </emissions>

    <traci_server>
        <remote-port value="60729"/>
    </traci_server>

    <gui_only>
        <tracker-interval value="0.1"/>
    </gui_only>

</configuration>
-->

<tripinfos xmlns:xsi="http://www.w3.org/2001/XMLSchema-instance" xsi:noNamespaceSchemaLocation="http://sumo.dlr.de/xsd/tripinfo_file.xsd">
    <tripinfo id="W_S.0" depart="0.00" departLane="a4i_0" departPos="4.90" departSpeed="0.00" departDelay="0.00" arrival="25.70" arrivalLane="a2o_1" arrivalPos="181.00" arrivalSpeed="19.98" duration="25.70" routeLength="395.21" waitingTime="0.00" waitingCount="0" stopTime="0.00" timeLoss="3.50" rerouteNo="0" devices="tripinfo_W_S.0 emissions_W_S.0" vType="car" speedFactor="1.06" vaporized="">
        <emissions CO_abs="1615.786280" CO2_abs="111697.332804" HC_abs="9.997616" PMx_abs="2.165692" NOx_abs="45.939103" fuel_abs="48.013618" electricity_abs="0"/>
    </tripinfo>
    <tripinfo id="W_S.2" depart="6.60" departLane="a4i_0" departPos="4.90" departSpeed="0.00" departDelay="0.00" arrival="32.60" arrivalLane="a2o_2" arrivalPos="181.00" arrivalSpeed="19.79" duration="26.00" routeLength="395.21" waitingTime="0.00" waitingCount="0" stopTime="0.00" timeLoss="3.59" rerouteNo="0" devices="tripinfo_W_S.2 emissions_W_S.2" vType="car" speedFactor="1.05" vaporized="">
        <emissions CO_abs="1691.643863" CO2_abs="116176.684880" HC_abs="10.442082" PMx_abs="2.275394" NOx_abs="47.953112" fuel_abs="49.939058" electricity_abs="0"/>
    </tripinfo>
    <tripinfo id="W_S.1" depart="3.20" departLane="a4i_0" departPos="4.90" departSpeed="0.00" departDelay="1.00" arrival="34.20" arrivalLane="a2o_1" arrivalPos="181.00" arrivalSpeed="15.73" duration="31.00" routeLength="395.21" waitingTime="0.00" waitingCount="0" stopTime="0.00" timeLoss="2.70" rerouteNo="0" devices="tripinfo_W_S.1 emissions_W_S.1" vType="car" speedFactor="0.83" vaporized="">
        <emissions CO_abs="1311.482832" CO2_abs="93911.140875" HC_abs="8.148631" PMx_abs="1.641820" NOx_abs="37.843213" fuel_abs="40.368334" electricity_abs="0"/>
    </tripinfo>
    <tripinfo id="N_L.0" depart="6.60" departLane="a3i_0" departPos="4.90" departSpeed="0.00" departDelay="0.00" arrival="35.20" arrivalLane="a2o_2" arrivalPos="181.00" arrivalSpeed="19.47" duration="28.60" routeLength="393.34" waitingTime="0.00" waitingCount="0" stopTime="0.00" timeLoss="5.12" rerouteNo="0" devices="tripinfo_N_L.0 emissions_N_L.0" vType="car" speedFactor="1.03" vaporized="">
        <emissions CO_abs="2121.497733" CO2_abs="136316.542682" HC_abs="12.895187" PMx_abs="2.716147" NOx_abs="57.170325" fuel_abs="58.596252" electricity_abs="0"/>
    </tripinfo>
    <tripinfo id="N_R.0" depart="8.60" departLane="a3i_0" departPos="4.90" departSpeed="0.00" departDelay="0.00" arrival="37.30" arrivalLane="a4o_0" arrivalPos="176.18" arrivalSpeed="17.81" duration="28.70" routeLength="365.95" waitingTime="0.00" waitingCount="0" stopTime="0.00" timeLoss="4.54" rerouteNo="0" devices="tripinfo_N_R.0 emissions_N_R.0" vType="car" speedFactor="0.94" vaporized="">
        <emissions CO_abs="1897.539511" CO2_abs="120193.151722" HC_abs="11.476933" PMx_abs="2.334294" NOx_abs="50.200119" fuel_abs="51.665640" electricity_abs="0"/>
    </tripinfo>
    <tripinfo id="S_R.0" depart="15.20" departLane="a1i_0" departPos="4.90" departSpeed="0.00" departDelay="0.00" arrival="41.70" arrivalLane="a2o_0" arrivalPos="181.00" arrivalSpeed="19.89" duration="26.50" routeLength="371.93" waitingTime="0.00" waitingCount="0" stopTime="0.00" timeLoss="5.66" rerouteNo="0" devices="tripinfo_S_R.0 emissions_S_R.0" vType="car" speedFactor="1.13" vaporized="">
        <emissions CO_abs="2594.355146" CO2_abs="161841.723313" HC_abs="15.702529" PMx_abs="3.373159" NOx_abs="68.930542" fuel_abs="69.568193" electricity_abs="0"/>
    </tripinfo>
    <tripinfo id="W_S.3" depart="14.60" departLane="a4i_0" departPos="4.90" departSpeed="0.00" departDelay="0.00" arrival="43.20" arrivalLane="a2o_1" arrivalPos="181.00" arrivalSpeed="17.40" duration="28.60" routeLength="395.21" waitingTime="0.00" waitingCount="0" stopTime="0.00" timeLoss="2.98" rerouteNo="0" devices="tripinfo_W_S.3 emissions_W_S.3" vType="car" speedFactor="0.92" vaporized="">
        <emissions CO_abs="1396.616561" CO2_abs="99817.163117" HC_abs="8.694853" PMx_abs="1.816356" NOx_abs="40.531333" fuel_abs="42.906987" electricity_abs="0"/>
    </tripinfo>
    <tripinfo id="W_R.0" depart="16.90" departLane="a4i_0" departPos="4.90" departSpeed="0.00" departDelay="1.60" arrival="45.90" arrivalLane="a1o_0" arrivalPos="174.27" arrivalSpeed="17.61" duration="29.00" routeLength="355.03" waitingTime="0.00" waitingCount="0" stopTime="0.00" timeLoss="5.19" rerouteNo="0" devices="tripinfo_W_R.0 emissions_W_R.0" vType="car" speedFactor="0.93" vaporized="">
        <emissions CO_abs="1923.866393" CO2_abs="118087.860482" HC_abs="11.546309" PMx_abs="2.281639" NOx_abs="49.330154" fuel_abs="50.760731" electricity_abs="0"/>
    </tripinfo>
    <tripinfo id="N_L.1" depart="17.30" departLane="a3i_0" departPos="4.90" departSpeed="0.00" departDelay="0.00" arrival="46.30" arrivalLane="a2o_2" arrivalPos="181.00" arrivalSpeed="18.99" duration="29.00" routeLength="393.34" waitingTime="0.00" waitingCount="0" stopTime="0.00" timeLoss="4.99" rerouteNo="0" devices="tripinfo_N_L.1 emissions_N_L.1" vType="car" speedFactor="1.01" vaporized="">
        <emissions CO_abs="2067.821204" CO2_abs="133288.618083" HC_abs="12.589499" PMx_abs="2.638618" NOx_abs="55.802689" fuel_abs="57.294708" electricity_abs="0"/>
    </tripinfo>
    <tripinfo id="N_R.1" depart="22.80" departLane="a3i_0" departPos="4.90" departSpeed="0.00" departDelay="0.00" arrival="49.40" arrivalLane="a4o_0" arrivalPos="176.18" arrivalSpeed="19.94" duration="26.60" routeLength="365.95" waitingTime="0.00" waitingCount="0" stopTime="0.00" timeLoss="5.45" rerouteNo="0" devices="tripinfo_N_R.1 emissions_N_R.1" vType="car" speedFactor="1.09" vaporized="">
        <emissions CO_abs="2191.419739" CO2_abs="137229.609049" HC_abs="13.245771" PMx_abs="2.786541" NOx_abs="57.945517" fuel_abs="58.988701" electricity_abs="0"/>
    </tripinfo>
    <tripinfo id="W_S.4" depart="23.90" departLane="a4i_0" departPos="4.90" departSpeed="0.00" departDelay="0.00" arrival="49.80" arrivalLane="a2o_1" arrivalPos="181.00" arrivalSpeed="19.62" duration="25.90" routeLength="395.21" waitingTime="0.00" waitingCount="0" stopTime="0.00" timeLoss="3.30" rerouteNo="0" devices="tripinfo_W_S.4 emissions_W_S.4" vType="car" speedFactor="1.04" vaporized="">
        <emissions CO_abs="1619.200616" CO2_abs="112448.007635" HC_abs="10.014788" PMx_abs="2.179588" NOx_abs="46.282547" fuel_abs="48.336287" electricity_abs="0"/>
    </tripinfo>
    <tripinfo id="W_S.6" depart="29.30" departLane="a4i_0" departPos="4.90" departSpeed="0.00" departDelay="2.10" arrival="54.70" arrivalLane="a2o_2" arrivalPos="181.00" arrivalSpeed="19.88" duration="25.40" routeLength="395.21" waitingTime="0.00" waitingCount="0" stopTime="0.00" timeLoss="3.63" rerouteNo="0" devices="tripinfo_W_S.6 emissions_W_S.6" vType="car" speedFactor="1.10" vaporized="">
        <emissions CO_abs="1681.879016" CO2_abs="113371.064679" HC_abs="10.361544" PMx_abs="2.253864" NOx_abs="47.076704" fuel_abs="48.733024" electricity_abs="0"/>
    </tripinfo>
    <tripinfo id="E_S.1" depart="8.00" departLane="a2i_0" departPos="4.90" departSpeed="0.00" departDelay="1.20" arrival="55.20" arrivalLane="a4o_2" arrivalPos="176.18" arrivalSpeed="19.89" duration="47.20" routeLength="395.21" waitingTime="15.90" waitingCount="1" stopTime="0.00" timeLoss="25.66" rerouteNo="0" devices="tripinfo_E_S.1 emissions_E_S.1" vType="car" speedFactor="1.12" vaporized="">
        <emissions CO_abs="5324.455993" CO2_abs="197514.933749" HC_abs="28.964133" PMx_abs="4.287677" NOx_abs="85.642565" fuel_abs="84.903984" electricity_abs="0"/>
    </tripinfo>
    <tripinfo id="W_S.5" depart="27.00" departLane="a4i_0" departPos="4.90" departSpeed="0.00" departDelay="1.90" arrival="56.00" arrivalLane="a2o_1" arrivalPos="181.00" arrivalSpeed="17.04" duration="29.00" routeLength="395.21" waitingTime="0.00" waitingCount="0" stopTime="0.00" timeLoss="2.89" rerouteNo="0" devices="tripinfo_W_S.5 emissions_W_S.5" vType="car" speedFactor="0.90" vaporized="">
        <emissions CO_abs="1356.457713" CO2_abs="102080.952012" HC_abs="8.532931" PMx_abs="1.794826" NOx_abs="40.946177" fuel_abs="43.880131" electricity_abs="0"/>
    </tripinfo>
    <tripinfo id="E_S.0" depart="4.90" departLane="a2i_0" departPos="4.90" departSpeed="0.00" departDelay="0.20" arrival="57.00" arrivalLane="a4o_1" arrivalPos="176.18" arrivalSpeed="16.17" duration="52.10" routeLength="395.21" waitingTime="17.50" waitingCount="1" stopTime="0.00" timeLoss="24.63" rerouteNo="0" devices="tripinfo_E_S.0 emissions_E_S.0" vType="car" speedFactor="0.86" vaporized="">
        <emissions CO_abs="4906.779719" CO2_abs="167526.377896" HC_abs="26.259632" PMx_abs="3.436709" NOx_abs="71.464646" fuel_abs="72.013692" electricity_abs="0"/>
    </tripinfo>
    <tripinfo id="E_S.3" depart="15.40" departLane="a2i_0" departPos="4.90" departSpeed="0.00" departDelay="1.50" arrival="57.80" arrivalLane="a4o_2" arrivalPos="176.18" arrivalSpeed="16.47" duration="42.40" routeLength="395.21" waitingTime="4.70" waitingCount="1" stopTime="0.00" timeLoss="15.35" rerouteNo="0" devices="tripinfo_E_S.3 emissions_E_S.3" vType="car" speedFactor="0.87" vaporized="">
        <emissions CO_abs="2206.056572" CO2_abs="126146.120694" HC_abs="13.005873" PMx_abs="2.404668" NOx_abs="52.515827" fuel_abs="54.224794" electricity_abs="0"/>
    </tripinfo>
    <tripinfo id="E_S.2" depart="11.70" departLane="a2i_0" departPos="4.90" departSpeed="0.00" departDelay="0.70" arrival="58.20" arrivalLane="a4o_1" arrivalPos="176.18" arrivalSpeed="17.41" duration="46.50" routeLength="395.21" waitingTime="9.60" waitingCount="1" stopTime="0.00" timeLoss="23.18" rerouteNo="0" devices="tripinfo_E_S.2 emissions_E_S.2" vType="car" speedFactor="1.01" vaporized="">
        <emissions CO_abs="2835.875629" CO2_abs="146317.161905" HC_abs="16.360132" PMx_abs="2.906847" NOx_abs="61.715249" fuel_abs="62.895510" electricity_abs="0"/>
    </tripinfo>
    <tripinfo id="E_S.5" depart="23.60" departLane="a2i_0" departPos="4.90" departSpeed="0.00" departDelay="3.30" arrival="58.90" arrivalLane="a4o_2" arrivalPos="176.18" arrivalSpeed="18.78" duration="35.30" routeLength="395.21" waitingTime="0.00" waitingCount="0" stopTime="0.00" timeLoss="13.51" rerouteNo="0" devices="tripinfo_E_S.5 emissions_E_S.5" vType="car" speedFactor="1.10" vaporized="">
        <emissions CO_abs="2629.322372" CO2_abs="150568.616663" HC_abs="15.544672" PMx_abs="3.027469" NOx_abs="63.720908" fuel_abs="64.722731" electricity_abs="0"/>
    </tripinfo>
    <tripinfo id="E_S.4" depart="19.10" departLane="a2i_0" departPos="4.90" departSpeed="0.00" departDelay="0.90" arrival="59.30" arrivalLane="a4o_1" arrivalPos="176.18" arrivalSpeed="18.87" duration="40.20" routeLength="395.21" waitingTime="3.10" waitingCount="1" stopTime="0.00" timeLoss="16.50" rerouteNo="0" devices="tripinfo_E_S.4 emissions_E_S.4" vType="car" speedFactor="0.99" vaporized="">
        <emissions CO_abs="2555.973151" CO2_abs="144840.861164" HC_abs="15.050980" PMx_abs="2.852796" NOx_abs="60.889565" fuel_abs="62.260738" electricity_abs="0"/>
    </tripinfo>
    <tripinfo id="E_S.7" depart="29.70" departLane="a2i_0" departPos="4.90" departSpeed="0.00" departDelay="2.00" arrival="60.00" arrivalLane="a4o_2" arrivalPos="176.18" arrivalSpeed="18.99" duration="30.30" routeLength="395.21" waitingTime="0.00" waitingCount="0" stopTime="0.00" timeLoss="6.77" rerouteNo="0" devices="tripinfo_E_S.7 emissions_E_S.7" vType="car" speedFactor="1.00" vaporized="">
        <emissions CO_abs="1931.106843" CO2_abs="129612.544162" HC_abs="11.863804" PMx_abs="2.480338" NOx_abs="53.763878" fuel_abs="55.714588" electricity_abs="0"/>
    </tripinfo>
    <tripinfo id="E_S.6" depart="27.00" departLane="a2i_0" departPos="4.90" departSpeed="0.00" departDelay="4.70" arrival="60.40" arrivalLane="a4o_1" arrivalPos="176.18" arrivalSpeed="18.08" duration="33.40" routeLength="395.21" waitingTime="0.00" waitingCount="0" stopTime="0.00" timeLoss="8.78" rerouteNo="0" devices="tripinfo_E_S.6 emissions_E_S.6" vType="car" speedFactor="0.96" vaporized="">
        <emissions CO_abs="2138.068554" CO2_abs="134452.800384" HC_abs="12.907478" PMx_abs="2.563907" NOx_abs="55.905592" fuel_abs="57.795304" electricity_abs="0"/>
    </tripinfo>
    <tripinfo id="W_S.7" depart="32.50" departLane="a4i_0" departPos="4.90" departSpeed="0.00" departDelay="0.00" arrival="61.10" arrivalLane="a2o_1" arrivalPos="181.00" arrivalSpeed="17.37" duration="28.60" routeLength="395.21" waitingTime="0.00" waitingCount="0" stopTime="0.00" timeLoss="2.87" rerouteNo="0" devices="tripinfo_W_S.7 emissions_W_S.7" vType="car" speedFactor="0.91" vaporized="">
        <emissions CO_abs="1378.637379" CO2_abs="101254.404170" HC_abs="8.638282" PMx_abs="1.828402" NOx_abs="40.946961" fuel_abs="43.524789" electricity_abs="0"/>
    </tripinfo>
    <tripinfo id="E_S.8" depart="32.50" departLane="a2i_0" departPos="4.90" departSpeed="0.00" departDelay="4.50" arrival="61.80" arrivalLane="a4o_1" arrivalPos="176.18" arrivalSpeed="17.03" duration="29.30" routeLength="395.21" waitingTime="0.00" waitingCount="0" stopTime="0.00" timeLoss="3.08" rerouteNo="0" devices="tripinfo_E_S.8 emissions_E_S.8" vType="car" speedFactor="0.90" vaporized="">
        <emissions CO_abs="1460.077945" CO2_abs="102774.615524" HC_abs="9.054006" PMx_abs="1.877996" NOx_abs="41.871284" fuel_abs="44.178264" electricity_abs="0"/>
    </tripinfo>
    <tripinfo id="E_R.0" depart="34.90" departLane="a2i_0" departPos="4.90" departSpeed="0.00" departDelay="1.20" arrival="62.40" arrivalLane="a3o_0" arrivalPos="178.50" arrivalSpeed="19.70" duration="27.50" routeLength="363.97" waitingTime="0.00" waitingCount="0" stopTime="0.00" timeLoss="5.78" rerouteNo="0" devices="tripinfo_E_R.0 emissions_E_R.0" vType="car" speedFactor="1.04" vaporized="">
        <emissions CO_abs="2161.771842" CO2_abs="134201.350756" HC_abs="13.041017" PMx_abs="2.696433" NOx_abs="56.527366" fuel_abs="57.687048" electricity_abs="0"/>
    </tripinfo>
    <tripinfo id="S_R.1" depart="34.20" departLane="a1i_0" departPos="4.90" departSpeed="0.00" departDelay="3.20" arrival="64.10" arrivalLane="a2o_0" arrivalPos="181.00" arrivalSpeed="16.71" duration="29.90" routeLength="371.93" waitingTime="0.00" waitingCount="0" stopTime="0.00" timeLoss="3.95" rerouteNo="0" devices="tripinfo_S_R.1 emissions_S_R.1" vType="car" speedFactor="0.88" vaporized="">
        <emissions CO_abs="1730.055671" CO2_abs="112025.065283" HC_abs="10.498091" PMx_abs="2.105710" NOx_abs="46.347638" fuel_abs="48.154617" electricity_abs="0"/>
    </tripinfo>
    <tripinfo id="E_S.9" depart="37.70" departLane="a2i_0" departPos="4.90" departSpeed="0.00" departDelay="2.20" arrival="65.80" arrivalLane="a4o_1" arrivalPos="176.18" arrivalSpeed="17.83" duration="28.10" routeLength="395.21" waitingTime="0.00" waitingCount="0" stopTime="0.00" timeLoss="3.07" rerouteNo="0" devices="tripinfo_E_S.9 emissions_E_S.9" vType="car" speedFactor="0.94" vaporized="">
        <emissions CO_abs="1417.715627" CO2_abs="102060.191764" HC_abs="8.845442" PMx_abs="1.872309" NOx_abs="41.444270" fuel_abs="43.871144" electricity_abs="0"/>
    </tripinfo>
    <tripinfo id="W_S.8" depart="39.10" departLane="a4i_0" departPos="4.90" departSpeed="0.00" departDelay="0.00" arrival="66.20" arrivalLane="a2o_1" arrivalPos="181.00" arrivalSpeed="18.63" duration="27.10" routeLength="395.21" waitingTime="0.00" waitingCount="0" stopTime="0.00" timeLoss="3.21" rerouteNo="0" devices="tripinfo_W_S.8 emissions_W_S.8" vType="car" speedFactor="0.98" vaporized="">
        <emissions CO_abs="1487.826139" CO2_abs="107367.257886" HC_abs="9.262423" PMx_abs="1.998400" NOx_abs="43.643458" fuel_abs="46.152377" electricity_abs="0"/>
    </tripinfo>
    <tripinfo id="E_R.1" depart="40.00" departLane="a2i_0" departPos="4.90" departSpeed="0.00" departDelay="2.80" arrival="67.20" arrivalLane="a3o_0" arrivalPos="178.50" arrivalSpeed="19.91" duration="27.20" routeLength="363.97" waitingTime="0.00" waitingCount="0" stopTime="0.00" timeLoss="5.78" rerouteNo="0" devices="tripinfo_E_R.1 emissions_E_R.1" vType="car" speedFactor="1.06" vaporized="">
        <emissions CO_abs="2180.590188" CO2_abs="134627.154147" HC_abs="13.125857" PMx_abs="2.726410" NOx_abs="56.885927" fuel_abs="57.870052" electricity_abs="0"/>
    </tripinfo>
    <tripinfo id="E_S.10" depart="42.30" departLane="a2i_0" departPos="4.90" departSpeed="0.00" departDelay="3.20" arrival="70.10" arrivalLane="a4o_1" arrivalPos="176.18" arrivalSpeed="18.09" duration="27.80" routeLength="395.21" waitingTime="0.00" waitingCount="0" stopTime="0.00" timeLoss="3.16" rerouteNo="0" devices="tripinfo_E_S.10 emissions_E_S.10" vType="car" speedFactor="0.96" vaporized="">
        <emissions CO_abs="1468.888372" CO2_abs="103889.804031" HC_abs="9.119574" PMx_abs="1.931169" NOx_abs="42.375117" fuel_abs="44.657593" electricity_abs="0"/>
    </tripinfo>
    <tripinfo id="N_R.2" depart="47.20" departLane="a3i_0" departPos="4.90" departSpeed="0.00" departDelay="0.00" arrival="74.80" arrivalLane="a4o_0" arrivalPos="176.18" arrivalSpeed="18.97" duration="27.60" routeLength="365.95" waitingTime="0.00" waitingCount="0" stopTime="0.00" timeLoss="4.92" rerouteNo="0" devices="tripinfo_N_R.2 emissions_N_R.2" vType="car" speedFactor="1.00" vaporized="">
        <emissions CO_abs="2037.766614" CO2_abs="129305.556572" HC_abs="12.333699" PMx_abs="2.561420" NOx_abs="54.235941" fuel_abs="55.582582" electricity_abs="0"/>
    </tripinfo>
    <tripinfo id="E_S.11" depart="52.90" departLane="a2i_0" departPos="4.90" departSpeed="0.00" departDelay="0.00" arrival="79.70" arrivalLane="a4o_1" arrivalPos="176.18" arrivalSpeed="19.14" duration="26.80" routeLength="395.21" waitingTime="0.00" waitingCount="0" stopTime="0.00" timeLoss="3.44" rerouteNo="0" devices="tripinfo_E_S.11 emissions_E_S.11" vType="car" speedFactor="1.01" vaporized="">
        <emissions CO_abs="1757.103947" CO2_abs="120866.917413" HC_abs="10.854267" PMx_abs="2.349113" NOx_abs="49.938084" fuel_abs="51.955185" electricity_abs="0"/>
    </tripinfo>
    <tripinfo id="E_S.12" depart="55.30" departLane="a2i_0" departPos="4.90" departSpeed="0.00" departDelay="1.50" arrival="80.90" arrivalLane="a4o_1" arrivalPos="176.18" arrivalSpeed="19.96" duration="25.60" routeLength="395.21" waitingTime="0.00" waitingCount="0" stopTime="0.00" timeLoss="4.06" rerouteNo="0" devices="tripinfo_E_S.12 emissions_E_S.12" vType="car" speedFactor="1.12" vaporized="">
        <emissions CO_abs="2248.304379" CO2_abs="145850.512077" HC_abs="13.742674" PMx_abs="3.017332" NOx_abs="61.662348" fuel_abs="62.694309" electricity_abs="0"/>
    </tripinfo>
    <tripinfo id="S_L.0" depart="1.30" departLane="a1i_0" departPos="4.90" departSpeed="0.00" departDelay="0.00" arrival="82.30" arrivalLane="a4o_2" arrivalPos="176.18" arrivalSpeed="19.91" duration="81.00" routeLength="393.58" waitingTime="48.20" waitingCount="1" stopTime="0.00" timeLoss="58.35" rerouteNo="0" devices="tripinfo_S_L.0 emissions_S_L.0" vType="car" speedFactor="1.08" vaporized="">
        <emissions CO_abs="10744.596989" CO2_abs="287274.073568" HC_abs="55.718091" PMx_abs="6.472603" NOx_abs="126.310612" fuel_abs="123.490125" electricity_abs="0"/>
    </tripinfo>
    <tripinfo id="N_R.3" depart="54.20" departLane="a3i_0" departPos="4.90" departSpeed="0.00" departDelay="2.30" arrival="83.30" arrivalLane="a4o_0" arrivalPos="176.18" arrivalSpeed="17.45" duration="29.10" routeLength="365.95" waitingTime="0.00" waitingCount="0" stopTime="0.00" timeLoss="4.42" rerouteNo="0" devices="tripinfo_N_R.3 emissions_N_R.3" vType="car" speedFactor="0.92" vaporized="">
        <emissions CO_abs="1838.980664" CO2_abs="116342.700625" HC_abs="11.133831" PMx_abs="2.252131" NOx_abs="48.591800" fuel_abs="50.010515" electricity_abs="0"/>
    </tripinfo>
    <tripinfo id="S_L.1" depart="2.80" departLane="a1i_0" departPos="4.90" departSpeed="0.00" departDelay="0.80" arrival="83.40" arrivalLane="a4o_3" arrivalPos="176.18" arrivalSpeed="19.47" duration="80.60" routeLength="386.57" waitingTime="46.10" waitingCount="1" stopTime="0.00" timeLoss="57.38" rerouteNo="0" devices="tripinfo_S_L.1 emissions_S_L.1" vType="car" speedFactor="1.03" vaporized="">
        <emissions CO_abs="10513.534611" CO2_abs="283171.496009" HC_abs="54.582164" PMx_abs="6.350722" NOx_abs="124.494593" fuel_abs="121.726519" electricity_abs="0"/>
    </tripinfo>
    <tripinfo id="S_L.2" depart="11.50" departLane="a1i_0" departPos="4.90" departSpeed="0.00" departDelay="0.90" arrival="83.90" arrivalLane="a4o_2" arrivalPos="176.18" arrivalSpeed="19.26" duration="72.40" routeLength="393.58" waitingTime="35.40" waitingCount="1" stopTime="0.00" timeLoss="48.55" rerouteNo="0" devices="tripinfo_S_L.2 emissions_S_L.2" vType="car" speedFactor="1.02" vaporized="">
        <emissions CO_abs="7448.979224" CO2_abs="228410.219688" HC_abs="39.327202" PMx_abs="5.007352" NOx_abs="99.561769" fuel_abs="98.185671" electricity_abs="0"/>
    </tripinfo>
    <tripinfo id="S_L.3" depart="19.80" departLane="a1i_0" departPos="4.90" departSpeed="0.00" departDelay="1.80" arrival="84.50" arrivalLane="a4o_3" arrivalPos="176.18" arrivalSpeed="19.94" duration="64.70" routeLength="386.57" waitingTime="27.60" waitingCount="1" stopTime="0.00" timeLoss="43.34" rerouteNo="0" devices="tripinfo_S_L.3 emissions_S_L.3" vType="car" speedFactor="1.17" vaporized="">
        <emissions CO_abs="6448.971651" CO2_abs="220151.261211" HC_abs="34.590770" PMx_abs="4.790962" NOx_abs="95.651014" fuel_abs="94.634867" electricity_abs="0"/>
    </tripinfo>
    <tripinfo id="S_L.4" depart="24.00" departLane="a1i_0" departPos="4.90" departSpeed="0.00" departDelay="0.00" arrival="85.40" arrivalLane="a4o_2" arrivalPos="176.18" arrivalSpeed="19.80" duration="61.40" routeLength="393.58" waitingTime="23.80" waitingCount="1" stopTime="0.00" timeLoss="38.16" rerouteNo="0" devices="tripinfo_S_L.4 emissions_S_L.4" vType="car" speedFactor="1.04" vaporized="">
        <emissions CO_abs="5988.736730" CO2_abs="217129.700337" HC_abs="32.442494" PMx_abs="4.750374" NOx_abs="94.735926" fuel_abs="93.335630" electricity_abs="0"/>
    </tripinfo>
    <tripinfo id="S_L.5" depart="25.30" departLane="a1i_0" departPos="4.90" departSpeed="0.00" departDelay="1.20" arrival="85.60" arrivalLane="a4o_3" arrivalPos="176.18" arrivalSpeed="19.90" duration="60.30" routeLength="386.57" waitingTime="22.30" waitingCount="1" stopTime="0.00" timeLoss="37.97" rerouteNo="0" devices="tripinfo_S_L.5 emissions_S_L.5" vType="car" speedFactor="1.09" vaporized="">
        <emissions CO_abs="5559.051677" CO2_abs="203396.929970" HC_abs="30.160044" PMx_abs="4.390125" NOx_abs="88.206548" fuel_abs="87.432510" electricity_abs="0"/>
    </tripinfo>
    <tripinfo id="S_L.6" depart="31.70" departLane="a1i_0" departPos="4.90" departSpeed="0.00" departDelay="2.30" arrival="86.90" arrivalLane="a4o_2" arrivalPos="176.18" arrivalSpeed="19.26" duration="55.20" routeLength="393.58" waitingTime="16.90" waitingCount="1" stopTime="0.00" timeLoss="31.33" rerouteNo="0" devices="tripinfo_S_L.6 emissions_S_L.6" vType="car" speedFactor="1.02" vaporized="">
        <emissions CO_abs="4458.595608" CO2_abs="182042.576499" HC_abs="24.623885" PMx_abs="3.806952" NOx_abs="78.013361" fuel_abs="78.252853" electricity_abs="0"/>
    </tripinfo>
    <tripinfo id="S_R.2" depart="61.00" departLane="a1i_0" departPos="4.90" departSpeed="0.00" departDelay="0.00" arrival="88.30" arrivalLane="a2o_0" arrivalPos="181.00" arrivalSpeed="19.64" duration="27.30" routeLength="371.93" waitingTime="0.00" waitingCount="0" stopTime="0.00" timeLoss="5.22" rerouteNo="0" devices="tripinfo_S_R.2 emissions_S_R.2" vType="car" speedFactor="1.03" vaporized="">
        <emissions CO_abs="2113.106515" CO2_abs="134042.912705" HC_abs="12.807534" PMx_abs="2.684665" NOx_abs="56.330068" fuel_abs="57.618923" electricity_abs="0"/>
    </tripinfo>
    <tripinfo id="E_S.13" depart="62.00" departLane="a2i_0" departPos="4.90" departSpeed="0.00" departDelay="0.00" arrival="89.70" arrivalLane="a4o_1" arrivalPos="176.18" arrivalSpeed="18.16" duration="27.70" routeLength="395.21" waitingTime="0.00" waitingCount="0" stopTime="0.00" timeLoss="3.10" rerouteNo="0" devices="tripinfo_E_S.13 emissions_E_S.13" vType="car" speedFactor="0.96" vaporized="">
        <emissions CO_abs="1465.081662" CO2_abs="105222.540489" HC_abs="9.147056" PMx_abs="1.953346" NOx_abs="42.841289" fuel_abs="45.230470" electricity_abs="0"/>
    </tripinfo>
    <tripinfo id="N_R.4" depart="64.70" departLane="a3i_0" departPos="4.90" departSpeed="0.00" departDelay="10.10" arrival="92.90" arrivalLane="a4o_0" arrivalPos="176.18" arrivalSpeed="18.28" duration="28.20" routeLength="365.95" waitingTime="0.00" waitingCount="0" stopTime="0.00" timeLoss="4.75" rerouteNo="0" devices="tripinfo_N_R.4 emissions_N_R.4" vType="car" speedFactor="0.97" vaporized="">
        <emissions CO_abs="1927.687104" CO2_abs="123924.797395" HC_abs="11.692953" PMx_abs="2.404342" NOx_abs="51.642752" fuel_abs="53.269694" electricity_abs="0"/>
    </tripinfo>
    <tripinfo id="S_L.7" depart="32.80" departLane="a1i_0" departPos="4.90" departSpeed="0.00" departDelay="2.30" arrival="94.90" arrivalLane="a4o_3" arrivalPos="176.18" arrivalSpeed="17.76" duration="62.10" routeLength="386.57" waitingTime="18.60" waitingCount="2" stopTime="0.00" timeLoss="36.53" rerouteNo="0" devices="tripinfo_S_L.7 emissions_S_L.7" vType="car" speedFactor="0.94" vaporized="">
        <emissions CO_abs="4957.661239" CO2_abs="184437.772629" HC_abs="26.912329" PMx_abs="3.829062" NOx_abs="79.133118" fuel_abs="79.282840" electricity_abs="0"/>
    </tripinfo>
    <tripinfo id="S_L.8" depart="36.50" departLane="a1i_0" departPos="4.90" departSpeed="0.00" departDelay="4.70" arrival="95.00" arrivalLane="a4o_2" arrivalPos="176.18" arrivalSpeed="17.18" duration="58.50" routeLength="393.58" waitingTime="14.90" waitingCount="2" stopTime="0.00" timeLoss="31.83" rerouteNo="0" devices="tripinfo_S_L.8 emissions_S_L.8" vType="car" speedFactor="0.91" vaporized="">
        <emissions CO_abs="4224.247208" CO2_abs="169625.034094" HC_abs="23.192151" PMx_abs="3.447624" NOx_abs="72.349225" fuel_abs="72.915218" electricity_abs="0"/>
    </tripinfo>
    <tripinfo id="E_S.14" depart="67.60" departLane="a2i_0" departPos="4.90" departSpeed="0.00" departDelay="0.00" arrival="95.40" arrivalLane="a4o_1" arrivalPos="176.18" arrivalSpeed="17.95" duration="27.80" routeLength="395.21" waitingTime="0.00" waitingCount="0" stopTime="0.00" timeLoss="4.06" rerouteNo="0" devices="tripinfo_E_S.14 emissions_E_S.14" vType="car" speedFactor="0.99" vaporized="">
        <emissions CO_abs="1800.446897" CO2_abs="125495.947358" HC_abs="11.114555" PMx_abs="2.410995" NOx_abs="51.848236" fuel_abs="53.944991" electricity_abs="0"/>
    </tripinfo>
    <tripinfo id="S_L.9" depart="37.60" departLane="a1i_0" departPos="4.90" departSpeed="0.00" departDelay="3.40" arrival="96.00" arrivalLane="a4o_3" arrivalPos="176.18" arrivalSpeed="19.40" duration="58.40" routeLength="386.57" waitingTime="12.60" waitingCount="2" stopTime="0.00" timeLoss="34.92" rerouteNo="0" devices="tripinfo_S_L.9 emissions_S_L.9" vType="car" speedFactor="1.02" vaporized="">
        <emissions CO_abs="4016.743523" CO2_abs="174188.237075" HC_abs="22.391772" PMx_abs="3.554898" NOx_abs="74.229709" fuel_abs="74.876486" electricity_abs="0"/>
    </tripinfo>
    <tripinfo id="S_L.10" depart="39.50" departLane="a1i_0" departPos="4.90" departSpeed="0.00" departDelay="0.00" arrival="96.10" arrivalLane="a4o_2" arrivalPos="176.18" arrivalSpeed="19.55" duration="56.60" routeLength="393.58" waitingTime="10.40" waitingCount="1" stopTime="0.00" timeLoss="33.17" rerouteNo="0" devices="tripinfo_S_L.10 emissions_S_L.10" vType="car" speedFactor="1.03" vaporized="">
        <emissions CO_abs="3844.396033" CO2_abs="174999.043067" HC_abs="21.647530" PMx_abs="3.571161" NOx_abs="74.682073" fuel_abs="75.224848" electricity_abs="0"/>
    </tripinfo>
    <tripinfo id="S_L.11" depart="43.70" departLane="a1i_0" departPos="4.90" departSpeed="0.00" departDelay="1.00" arrival="97.00" arrivalLane="a4o_3" arrivalPos="176.18" arrivalSpeed="19.61" duration="53.30" routeLength="386.57" waitingTime="6.40" waitingCount="1" stopTime="0.00" timeLoss="30.18" rerouteNo="0" devices="tripinfo_S_L.11 emissions_S_L.11" vType="car" speedFactor="1.03" vaporized="">
        <emissions CO_abs="3644.444625" CO2_abs="167252.920797" HC_abs="20.564550" PMx_abs="3.433907" NOx_abs="71.535882" fuel_abs="71.895052" electricity_abs="0"/>
    </tripinfo>
    <tripinfo id="N_S.1" depart="25.80" departLane="a3i_0" departPos="4.90" departSpeed="0.00" departDelay="0.00" arrival="101.90" arrivalLane="a1o_2" arrivalPos="174.27" arrivalSpeed="16.55" duration="76.10" routeLength="393.21" waitingTime="41.70" waitingCount="1" stopTime="0.00" timeLoss="49.33" rerouteNo="0" devices="tripinfo_N_S.1 emissions_N_S.1" vType="car" speedFactor="0.88" vaporized="">