<?xml version="1.0" encoding="UTF-8"?>

<!-- generated on 12/04/19 20:28:43 by Eclipse SUMO GUI Version 1.3.1
<configuration xmlns:xsi="http://www.w3.org/2001/XMLSchema-instance" xsi:noNamespaceSchemaLocation="http://sumo.dlr.de/xsd/sumoConfiguration.xsd">

    <input>
        <net-file value="../cfg9_S12W22N12E22/intersection.net.xml"/>
        <route-files value="../cfg9_S12W22N12E22/intersection.rou.xml"/>
        <additional-files value="../cfg9_S12W22N12E22/intersection.det.xml"/>
    </input>

    <output>
        <tripinfo-output value="../result/tripinfo10.xml"/>
    </output>

    <time>
        <begin value="0"/>
        <end value="3800"/>
        <step-length value="0.1"/>
    </time>

    <processing>
        <collision.action value="none"/>
    </processing>

    <emissions>
        <device.emissions.probability value="1"/>
    </emissions>

    <traci_server>
        <remote-port value="60873"/>
    </traci_server>

    <gui_only>
        <tracker-interval value="0.1"/>
    </gui_only>

</configuration>
-->

<tripinfos xmlns:xsi="http://www.w3.org/2001/XMLSchema-instance" xsi:noNamespaceSchemaLocation="http://sumo.dlr.de/xsd/tripinfo_file.xsd">
    <tripinfo id="W_S.0" depart="0.00" departLane="a4i_0" departPos="4.90" departSpeed="0.00" departDelay="0.00" arrival="25.70" arrivalLane="a2o_1" arrivalPos="181.00" arrivalSpeed="19.96" duration="25.70" routeLength="395.21" waitingTime="0.00" waitingCount="0" stopTime="0.00" timeLoss="3.46" rerouteNo="0" devices="tripinfo_W_S.0 emissions_W_S.0" vType="car" speedFactor="1.06" vaporized="">
        <emissions CO_abs="1604.786635" CO2_abs="112757.751875" HC_abs="9.975987" PMx_abs="2.176905" NOx_abs="46.229929" fuel_abs="48.469445" electricity_abs="0"/>
    </tripinfo>
    <tripinfo id="W_S.1" depart="3.30" departLane="a4i_0" departPos="4.90" departSpeed="0.00" departDelay="1.10" arrival="29.90" arrivalLane="a2o_1" arrivalPos="181.00" arrivalSpeed="19.11" duration="26.60" routeLength="395.21" waitingTime="0.00" waitingCount="0" stopTime="0.00" timeLoss="3.36" rerouteNo="0" devices="tripinfo_W_S.1 emissions_W_S.1" vType="car" speedFactor="1.01" vaporized="">
        <emissions CO_abs="1523.503083" CO2_abs="108040.634404" HC_abs="9.466893" PMx_abs="2.043694" NOx_abs="44.099294" fuel_abs="46.441811" electricity_abs="0"/>
    </tripinfo>
    <tripinfo id="N_L.0" depart="6.60" departLane="a3i_0" departPos="4.90" departSpeed="0.00" departDelay="0.00" arrival="35.50" arrivalLane="a2o_2" arrivalPos="181.00" arrivalSpeed="19.55" duration="28.90" routeLength="393.34" waitingTime="0.00" waitingCount="0" stopTime="0.00" timeLoss="5.43" rerouteNo="0" devices="tripinfo_N_L.0 emissions_N_L.0" vType="car" speedFactor="1.03" vaporized="">
        <emissions CO_abs="2162.629072" CO2_abs="138854.999689" HC_abs="13.154666" PMx_abs="2.765059" NOx_abs="58.262481" fuel_abs="59.687421" electricity_abs="0"/>
    </tripinfo>
    <tripinfo id="N_R.0" depart="8.60" departLane="a3i_0" departPos="4.90" departSpeed="0.00" departDelay="0.00" arrival="37.30" arrivalLane="a4o_0" arrivalPos="176.18" arrivalSpeed="17.74" duration="28.70" routeLength="365.95" waitingTime="0.00" waitingCount="0" stopTime="0.00" timeLoss="4.46" rerouteNo="0" devices="tripinfo_N_R.0 emissions_N_R.0" vType="car" speedFactor="0.94" vaporized="">
        <emissions CO_abs="1846.686686" CO2_abs="117582.809130" HC_abs="11.186762" PMx_abs="2.280980" NOx_abs="49.085725" fuel_abs="50.543568" electricity_abs="0"/>
    </tripinfo>
    <tripinfo id="W_S.2" depart="6.60" departLane="a4i_0" departPos="4.90" departSpeed="0.00" departDelay="0.00" arrival="37.60" arrivalLane="a2o_1" arrivalPos="181.00" arrivalSpeed="15.76" duration="31.00" routeLength="395.21" waitingTime="0.00" waitingCount="0" stopTime="0.00" timeLoss="2.77" rerouteNo="0" devices="tripinfo_W_S.2 emissions_W_S.2" vType="car" speedFactor="0.83" vaporized="">
        <emissions CO_abs="1300.918886" CO2_abs="94207.982214" HC_abs="8.097178" PMx_abs="1.619628" NOx_abs="37.766137" fuel_abs="40.495963" electricity_abs="0"/>
    </tripinfo>
    <tripinfo id="W_S.3" depart="14.60" departLane="a4i_0" departPos="4.90" departSpeed="0.00" departDelay="0.00" arrival="40.30" arrivalLane="a2o_1" arrivalPos="181.00" arrivalSpeed="19.79" duration="25.70" routeLength="395.21" waitingTime="0.00" waitingCount="0" stopTime="0.00" timeLoss="3.28" rerouteNo="0" devices="tripinfo_W_S.3 emissions_W_S.3" vType="car" speedFactor="1.05" vaporized="">
        <emissions CO_abs="1570.665998" CO2_abs="111147.440675" HC_abs="9.759228" PMx_abs="2.134660" NOx_abs="45.523799" fuel_abs="47.777246" electricity_abs="0"/>
    </tripinfo>
    <tripinfo id="S_R.0" depart="15.20" departLane="a1i_0" departPos="4.90" departSpeed="0.00" departDelay="0.00" arrival="41.80" arrivalLane="a2o_0" arrivalPos="181.00" arrivalSpeed="19.94" duration="26.60" routeLength="371.93" waitingTime="0.00" waitingCount="0" stopTime="0.00" timeLoss="5.67" rerouteNo="0" devices="tripinfo_S_R.0 emissions_S_R.0" vType="car" speedFactor="1.12" vaporized="">
        <emissions CO_abs="2547.495183" CO2_abs="157714.202693" HC_abs="15.397746" PMx_abs="3.288102" NOx_abs="67.227742" fuel_abs="67.793977" electricity_abs="0"/>
    </tripinfo>
    <tripinfo id="W_R.0" depart="16.90" departLane="a4i_0" departPos="4.90" departSpeed="0.00" departDelay="1.60" arrival="44.60" arrivalLane="a1o_0" arrivalPos="174.27" arrivalSpeed="18.78" duration="27.70" routeLength="355.03" waitingTime="0.00" waitingCount="0" stopTime="0.00" timeLoss="5.41" rerouteNo="0" devices="tripinfo_W_R.0 emissions_W_R.0" vType="car" speedFactor="0.99" vaporized="">
        <emissions CO_abs="2022.656167" CO2_abs="126211.012027" HC_abs="12.195542" PMx_abs="2.484832" NOx_abs="52.895816" fuel_abs="54.252426" electricity_abs="0"/>
    </tripinfo>
    <tripinfo id="N_R.1" depart="22.80" departLane="a3i_0" departPos="4.90" departSpeed="0.00" departDelay="0.00" arrival="50.10" arrivalLane="a4o_0" arrivalPos="176.18" arrivalSpeed="19.29" duration="27.30" routeLength="365.95" waitingTime="0.00" waitingCount="0" stopTime="0.00" timeLoss="4.96" rerouteNo="0" devices="tripinfo_N_R.1 emissions_N_R.1" vType="car" speedFactor="1.02" vaporized="">
        <emissions CO_abs="2044.179232" CO2_abs="132038.014916" HC_abs="12.428351" PMx_abs="2.609564" NOx_abs="55.214013" fuel_abs="56.757133" electricity_abs="0"/>
    </tripinfo>
    <tripinfo id="W_S.4" depart="23.90" departLane="a4i_0" departPos="4.90" departSpeed="0.00" departDelay="0.00" arrival="50.50" arrivalLane="a2o_1" arrivalPos="181.00" arrivalSpeed="19.13" duration="26.60" routeLength="395.21" waitingTime="0.00" waitingCount="0" stopTime="0.00" timeLoss="3.29" rerouteNo="0" devices="tripinfo_W_S.4 emissions_W_S.4" vType="car" speedFactor="1.01" vaporized="">
        <emissions CO_abs="1551.467204" CO2_abs="107478.803209" HC_abs="9.607901" PMx_abs="2.061898" NOx_abs="44.199968" fuel_abs="46.200281" electricity_abs="0"/>
    </tripinfo>
    <tripinfo id="W_S.5" depart="26.20" departLane="a4i_0" departPos="4.90" departSpeed="0.00" departDelay="1.10" arrival="53.40" arrivalLane="a2o_1" arrivalPos="181.00" arrivalSpeed="18.52" duration="27.20" routeLength="395.21" waitingTime="0.00" waitingCount="0" stopTime="0.00" timeLoss="3.10" rerouteNo="0" devices="tripinfo_W_S.5 emissions_W_S.5" vType="car" speedFactor="0.98" vaporized="">
        <emissions CO_abs="1461.238797" CO2_abs="103267.784731" HC_abs="9.080615" PMx_abs="1.940420" NOx_abs="42.203909" fuel_abs="44.390190" electricity_abs="0"/>
    </tripinfo>
    <tripinfo id="E_S.1" depart="11.00" departLane="a2i_0" departPos="4.90" departSpeed="0.00" departDelay="0.00" arrival="55.20" arrivalLane="a4o_2" arrivalPos="176.18" arrivalSpeed="19.92" duration="44.20" routeLength="395.21" waitingTime="12.90" waitingCount="1" stopTime="0.00" timeLoss="22.23" rerouteNo="0" devices="tripinfo_E_S.1 emissions_E_S.1" vType="car" speedFactor="1.09" vaporized="">
        <emissions CO_abs="4750.989660" CO2_abs="190379.315629" HC_abs="26.154870" PMx_abs="4.048830" NOx_abs="81.834593" fuel_abs="81.836475" electricity_abs="0"/>
    </tripinfo>
    <tripinfo id="E_S.0" depart="6.80" departLane="a2i_0" departPos="4.90" departSpeed="0.00" departDelay="0.00" arrival="55.40" arrivalLane="a4o_1" arrivalPos="176.18" arrivalSpeed="19.83" duration="48.60" routeLength="395.21" waitingTime="17.00" waitingCount="1" stopTime="0.00" timeLoss="26.02" rerouteNo="0" devices="tripinfo_E_S.0 emissions_E_S.0" vType="car" speedFactor="1.05" vaporized="">
        <emissions CO_abs="5314.201333" CO2_abs="192591.796216" HC_abs="28.780494" PMx_abs="4.120711" NOx_abs="82.973793" fuel_abs="82.787930" electricity_abs="0"/>
    </tripinfo>
    <tripinfo id="E_S.2" depart="13.90" departLane="a2i_0" departPos="4.90" departSpeed="0.00" departDelay="0.00" arrival="57.10" arrivalLane="a4o_1" arrivalPos="176.18" arrivalSpeed="17.81" duration="43.20" routeLength="395.21" waitingTime="7.70" waitingCount="1" stopTime="0.00" timeLoss="20.26" rerouteNo="0" devices="tripinfo_E_S.2 emissions_E_S.2" vType="car" speedFactor="1.03" vaporized="">
        <emissions CO_abs="2486.875414" CO2_abs="141280.101492" HC_abs="14.650653" PMx_abs="2.799154" NOx_abs="59.320185" fuel_abs="60.730110" electricity_abs="0"/>
    </tripinfo>
    <tripinfo id="E_S.3" depart="18.20" departLane="a2i_0" departPos="4.90" departSpeed="0.00" departDelay="0.00" arrival="57.10" arrivalLane="a4o_2" arrivalPos="176.18" arrivalSpeed="17.88" duration="38.90" routeLength="395.21" waitingTime="2.50" waitingCount="1" stopTime="0.00" timeLoss="13.82" rerouteNo="0" devices="tripinfo_E_S.3 emissions_E_S.3" vType="car" speedFactor="0.94" vaporized="">
        <emissions CO_abs="2374.481605" CO2_abs="136326.056778" HC_abs="14.020693" PMx_abs="2.677511" NOx_abs="57.134311" fuel_abs="58.600594" electricity_abs="0"/>
    </tripinfo>
    <tripinfo id="E_S.5" depart="22.80" departLane="a2i_0" departPos="4.90" departSpeed="0.00" departDelay="0.50" arrival="58.10" arrivalLane="a4o_2" arrivalPos="176.18" arrivalSpeed="19.96" duration="35.30" routeLength="395.21" waitingTime="0.00" waitingCount="0" stopTime="0.00" timeLoss="14.18" rerouteNo="0" devices="tripinfo_E_S.5 emissions_E_S.5" vType="car" speedFactor="1.16" vaporized="">
        <emissions CO_abs="2795.168152" CO2_abs="158904.768648" HC_abs="16.502542" PMx_abs="3.251569" NOx_abs="67.475640" fuel_abs="68.306015" electricity_abs="0"/>
    </tripinfo>
    <tripinfo id="W_S.6" depart="28.50" departLane="a4i_0" departPos="4.90" departSpeed="0.00" departDelay="1.30" arrival="58.20" arrivalLane="a2o_1" arrivalPos="181.00" arrivalSpeed="16.57" duration="29.70" routeLength="395.21" waitingTime="0.00" waitingCount="0" stopTime="0.00" timeLoss="2.76" rerouteNo="0" devices="tripinfo_W_S.6 emissions_W_S.6" vType="car" speedFactor="0.87" vaporized="">
        <emissions CO_abs="1341.807142" CO2_abs="97319.815212" HC_abs="8.373584" PMx_abs="1.727999" NOx_abs="39.295102" fuel_abs="41.833530" electricity_abs="0"/>
    </tripinfo>
    <tripinfo id="E_S.4" depart="20.50" departLane="a2i_0" departPos="4.90" departSpeed="0.00" departDelay="0.20" arrival="58.30" arrivalLane="a4o_1" arrivalPos="176.18" arrivalSpeed="17.76" duration="37.80" routeLength="395.21" waitingTime="1.20" waitingCount="1" stopTime="0.00" timeLoss="12.63" rerouteNo="0" devices="tripinfo_E_S.4 emissions_E_S.4" vType="car" speedFactor="0.94" vaporized="">
        <emissions CO_abs="2463.414850" CO2_abs="135023.771128" HC_abs="14.429322" PMx_abs="2.695358" NOx_abs="57.025816" fuel_abs="58.040818" electricity_abs="0"/>
    </tripinfo>
    <tripinfo id="E_S.7" depart="30.90" departLane="a2i_0" departPos="4.90" departSpeed="0.00" departDelay="2.90" arrival="59.20" arrivalLane="a4o_2" arrivalPos="176.18" arrivalSpeed="19.98" duration="28.30" routeLength="395.21" waitingTime="0.00" waitingCount="0" stopTime="0.00" timeLoss="6.86" rerouteNo="0" devices="tripinfo_E_S.7 emissions_E_S.7" vType="car" speedFactor="1.13" vaporized="">
        <emissions CO_abs="2324.871862" CO2_abs="151317.315162" HC_abs="14.208615" PMx_abs="3.064436" NOx_abs="63.835873" fuel_abs="65.044296" electricity_abs="0"/>
    </tripinfo>
    <tripinfo id="S_R.1" depart="31.70" departLane="a1i_0" departPos="4.90" departSpeed="0.00" departDelay="0.70" arrival="59.30" arrivalLane="a2o_0" arrivalPos="181.00" arrivalSpeed="19.40" duration="27.60" routeLength="371.93" waitingTime="0.00" waitingCount="0" stopTime="0.00" timeLoss="7.26" rerouteNo="0" devices="tripinfo_S_R.1 emissions_S_R.1" vType="car" speedFactor="1.18" vaporized="">
        <emissions CO_abs="3004.007865" CO2_abs="181454.276864" HC_abs="18.040337" PMx_abs="3.865803" NOx_abs="78.303606" fuel_abs="77.998616" electricity_abs="0"/>
    </tripinfo>
    <tripinfo id="W_S.7" depart="32.50" departLane="a4i_0" departPos="4.90" departSpeed="0.00" departDelay="0.00" arrival="59.40" arrivalLane="a2o_1" arrivalPos="181.00" arrivalSpeed="19.15" duration="26.90" routeLength="395.21" waitingTime="0.00" waitingCount="0" stopTime="0.00" timeLoss="5.69" rerouteNo="0" devices="tripinfo_W_S.7 emissions_W_S.7" vType="car" speedFactor="1.15" vaporized="">
        <emissions CO_abs="1730.158530" CO2_abs="116365.011129" HC_abs="10.633510" PMx_abs="2.287198" NOx_abs="48.382336" fuel_abs="50.020001" electricity_abs="0"/>
    </tripinfo>
    <tripinfo id="E_S.6" depart="27.70" departLane="a2i_0" departPos="4.90" departSpeed="0.00" departDelay="0.00" arrival="59.50" arrivalLane="a4o_1" arrivalPos="176.18" arrivalSpeed="17.41" duration="31.80" routeLength="395.21" waitingTime="0.00" waitingCount="0" stopTime="0.00" timeLoss="6.12" rerouteNo="0" devices="tripinfo_E_S.6 emissions_E_S.6" vType="car" speedFactor="0.92" vaporized="">
        <emissions CO_abs="1939.111559" CO2_abs="121854.588963" HC_abs="11.697344" PMx_abs="2.329043" NOx_abs="50.664372" fuel_abs="52.379886" electricity_abs="0"/>
    </tripinfo>
    <tripinfo id="E_R.0" depart="33.70" departLane="a2i_0" departPos="4.90" departSpeed="0.00" departDelay="0.00" arrival="61.60" arrivalLane="a3o_0" arrivalPos="178.50" arrivalSpeed="19.02" duration="27.90" routeLength="363.97" waitingTime="0.00" waitingCount="0" stopTime="0.00" timeLoss="5.45" rerouteNo="0" devices="tripinfo_E_R.0 emissions_E_R.0" vType="car" speedFactor="1.01" vaporized="">
        <emissions CO_abs="2066.435765" CO2_abs="130042.494963" HC_abs="12.487301" PMx_abs="2.571492" NOx_abs="54.501225" fuel_abs="55.899383" electricity_abs="0"/>
    </tripinfo>
    <tripinfo id="E_S.8" depart="36.00" departLane="a2i_0" departPos="4.90" departSpeed="0.00" departDelay="0.50" arrival="63.00" arrivalLane="a4o_1" arrivalPos="176.18" arrivalSpeed="18.89" duration="27.00" routeLength="395.21" waitingTime="0.00" waitingCount="0" stopTime="0.00" timeLoss="3.32" rerouteNo="0" devices="tripinfo_E_S.8 emissions_E_S.8" vType="car" speedFactor="0.99" vaporized="">
        <emissions CO_abs="1486.298972" CO2_abs="105516.262794" HC_abs="9.241410" PMx_abs="1.978548" NOx_abs="43.019086" fuel_abs="45.356717" electricity_abs="0"/>
    </tripinfo>
    <tripinfo id="W_S.8" depart="39.10" departLane="a4i_0" departPos="4.90" departSpeed="0.00" departDelay="0.00" arrival="63.70" arrivalLane="a2o_1" arrivalPos="181.00" arrivalSpeed="19.99" duration="24.60" routeLength="395.21" waitingTime="0.00" waitingCount="0" stopTime="0.00" timeLoss="3.73" rerouteNo="0" devices="tripinfo_W_S.8 emissions_W_S.8" vType="car" speedFactor="1.18" vaporized="">
        <emissions CO_abs="1627.329890" CO2_abs="111481.096641" HC_abs="10.052319" PMx_abs="2.202669" NOx_abs="45.982678" fuel_abs="47.920631" electricity_abs="0"/>
    </tripinfo>
    <tripinfo id="E_R.1" depart="38.30" departLane="a2i_0" departPos="4.90" departSpeed="0.00" departDelay="1.10" arrival="66.00" arrivalLane="a3o_0" arrivalPos="178.50" arrivalSpeed="19.26" duration="27.70" routeLength="363.97" waitingTime="0.00" waitingCount="0" stopTime="0.00" timeLoss="5.57" rerouteNo="0" devices="tripinfo_E_R.1 emissions_E_R.1" vType="car" speedFactor="1.02" vaporized="">
        <emissions CO_abs="2118.900279" CO2_abs="131277.259530" HC_abs="12.776285" PMx_abs="2.636106" NOx_abs="55.348508" fuel_abs="56.430114" electricity_abs="0"/>
    </tripinfo>
    <tripinfo id="E_S.9" depart="41.80" departLane="a2i_0" departPos="4.90" departSpeed="0.00" departDelay="2.70" arrival="69.20" arrivalLane="a4o_1" arrivalPos="176.18" arrivalSpeed="18.40" duration="27.40" routeLength="395.21" waitingTime="0.00" waitingCount="0" stopTime="0.00" timeLoss="3.15" rerouteNo="0" devices="tripinfo_E_S.9 emissions_E_S.9" vType="car" speedFactor="0.97" vaporized="">
        <emissions CO_abs="1452.184609" CO2_abs="104914.129571" HC_abs="9.060787" PMx_abs="1.944188" NOx_abs="42.632812" fuel_abs="45.097898" electricity_abs="0"/>
    </tripinfo>
    <tripinfo id="N_R.2" depart="47.20" departLane="a3i_0" departPos="4.90" departSpeed="0.00" departDelay="0.00" arrival="74.10" arrivalLane="a4o_0" arrivalPos="176.18" arrivalSpeed="19.62" duration="26.90" routeLength="365.95" waitingTime="0.00" waitingCount="0" stopTime="0.00" timeLoss="4.99" rerouteNo="0" devices="tripinfo_N_R.2 emissions_N_R.2" vType="car" speedFactor="1.04" vaporized="">
        <emissions CO_abs="2101.006544" CO2_abs="133716.704883" HC_abs="12.752761" PMx_abs="2.683182" NOx_abs="56.198426" fuel_abs="57.478691" electricity_abs="0"/>
    </tripinfo>
    <tripinfo id="N_R.3" depart="51.90" departLane="a3i_0" departPos="4.90" departSpeed="0.00" departDelay="0.00" arrival="82.10" arrivalLane="a4o_0" arrivalPos="176.18" arrivalSpeed="16.58" duration="30.20" routeLength="365.95" waitingTime="0.00" waitingCount="0" stopTime="0.00" timeLoss="4.19" rerouteNo="0" devices="tripinfo_N_R.3 emissions_N_R.3" vType="car" speedFactor="0.88" vaporized="">
        <emissions CO_abs="1732.287936" CO2_abs="111895.762413" HC_abs="10.497534" PMx_abs="2.092124" NOx_abs="46.230583" fuel_abs="48.099054" electricity_abs="0"/>
    </tripinfo>
    <tripinfo id="S_L.0" depart="19.80" departLane="a1i_0" departPos="4.90" departSpeed="0.00" departDelay="1.80" arrival="83.20" arrivalLane="a4o_2" arrivalPos="176.18" arrivalSpeed="16.60" duration="63.40" routeLength="390.41" waitingTime="28.30" waitingCount="1" stopTime="0.00" timeLoss="35.98" rerouteNo="0" devices="tripinfo_S_L.0 emissions_S_L.0" vType="car" speedFactor="0.88" vaporized="">
        <emissions CO_abs="6996.608303" CO2_abs="209072.590328" HC_abs="36.803603" PMx_abs="4.497155" NOx_abs="90.804940" fuel_abs="89.873356" electricity_abs="0"/>
    </tripinfo>
    <tripinfo id="E_S.10" depart="52.90" departLane="a2i_0" departPos="4.90" departSpeed="0.00" departDelay="0.00" arrival="83.30" arrivalLane="a4o_1" arrivalPos="176.18" arrivalSpeed="16.11" duration="30.40" routeLength="395.21" waitingTime="0.00" waitingCount="0" stopTime="0.00" timeLoss="2.72" rerouteNo="0" devices="tripinfo_E_S.10 emissions_E_S.10" vType="car" speedFactor="0.85" vaporized="">
        <emissions CO_abs="1302.486819" CO2_abs="95555.735628" HC_abs="8.153396" PMx_abs="1.657399" NOx_abs="38.362383" fuel_abs="41.075274" electricity_abs="0"/>
    </tripinfo>
    <tripinfo id="S_L.1" depart="44.60" departLane="a1i_0" departPos="4.90" departSpeed="0.00" departDelay="1.90" arrival="84.40" arrivalLane="a4o_2" arrivalPos="176.18" arrivalSpeed="19.49" duration="39.80" routeLength="390.41" waitingTime="2.30" waitingCount="1" stopTime="0.00" timeLoss="16.42" rerouteNo="0" devices="tripinfo_S_L.1 emissions_S_L.1" vType="car" speedFactor="1.03" vaporized="">
        <emissions CO_abs="2947.963822" CO2_abs="161784.373049" HC_abs="17.287134" PMx_abs="3.317902" NOx_abs="69.106309" fuel_abs="69.543871" electricity_abs="0"/>
    </tripinfo>
    <tripinfo id="N_R.4" depart="57.00" departLane="a3i_0" departPos="4.90" departSpeed="0.00" departDelay="2.40" arrival="84.60" arrivalLane="a4o_0" arrivalPos="176.18" arrivalSpeed="19.60" duration="27.60" routeLength="365.95" waitingTime="0.00" waitingCount="0" stopTime="0.00" timeLoss="6.41" rerouteNo="0" devices="tripinfo_N_R.4 emissions_N_R.4" vType="car" speedFactor="1.10" vaporized="">
        <emissions CO_abs="2219.627512" CO2_abs="134650.706426" HC_abs="13.310082" PMx_abs="2.770636" NOx_abs="57.382627" fuel_abs="57.880122" electricity_abs="0"/>
    </tripinfo>
    <tripinfo id="S_R.2" depart="61.00" departLane="a1i_0" departPos="4.90" departSpeed="0.00" departDelay="0.00" arrival="87.70" arrivalLane="a2o_0" arrivalPos="181.00" arrivalSpeed="19.94" duration="26.70" routeLength="371.93" waitingTime="0.00" waitingCount="0" stopTime="0.00" timeLoss="6.01" rerouteNo="0" devices="tripinfo_S_R.2 emissions_S_R.2" vType="car" speedFactor="1.14" vaporized="">
        <emissions CO_abs="2817.250250" CO2_abs="173156.393175" HC_abs="16.998117" PMx_abs="3.650955" NOx_abs="74.160576" fuel_abs="74.431799" electricity_abs="0"/>
    </tripinfo>
    <tripinfo id="E_S.11" depart="62.00" departLane="a2i_0" departPos="4.90" departSpeed="0.00" departDelay="0.00" arrival="88.30" arrivalLane="a4o_1" arrivalPos="176.18" arrivalSpeed="19.34" duration="26.30" routeLength="395.21" waitingTime="0.00" waitingCount="0" stopTime="0.00" timeLoss="3.25" rerouteNo="0" devices="tripinfo_E_S.11 emissions_E_S.11" vType="car" speedFactor="1.02" vaporized="">
        <emissions CO_abs="1573.244190" CO2_abs="110468.407624" HC_abs="9.755102" PMx_abs="2.117113" NOx_abs="45.329922" fuel_abs="47.485367" electricity_abs="0"/>
    </tripinfo>
    <tripinfo id="E_S.12" depart="67.60" departLane="a2i_0" departPos="4.90" departSpeed="0.00" departDelay="0.00" arrival="96.60" arrivalLane="a4o_1" arrivalPos="176.18" arrivalSpeed="17.17" duration="29.00" routeLength="395.21" waitingTime="0.00" waitingCount="0" stopTime="0.00" timeLoss="2.97" rerouteNo="0" devices="tripinfo_E_S.12 emissions_E_S.12" vType="car" speedFactor="0.91" vaporized="">
        <emissions CO_abs="1415.639454" CO2_abs="101471.020509" HC_abs="8.819617" PMx_abs="1.840850" NOx_abs="41.181230" fuel_abs="43.617911" electricity_abs="0"/>
    </tripinfo>
    <tripinfo id="N_R.5" depart="70.30" departLane="a3i_0" departPos="4.90" departSpeed="0.00" departDelay="0.00" arrival="97.80" arrivalLane="a4o_0" arrivalPos="176.18" arrivalSpeed="19.71" duration="27.50" routeLength="365.95" waitingTime="0.00" waitingCount="0" stopTime="0.00" timeLoss="5.59" rerouteNo="0" devices="tripinfo_N_R.5 emissions_N_R.5" vType="car" speedFactor="1.04" vaporized="">
        <emissions CO_abs="2152.755688" CO2_abs="135824.881450" HC_abs="13.031088" PMx_abs="2.727680" NOx_abs="57.260344" fuel_abs="58.384895" electricity_abs="0"/>
    </tripinfo>
    <tripinfo id="N_S.1" depart="40.30" departLane="a3i_0" departPos="4.90" departSpeed="0.00" departDelay="0.00" arrival="100.40" arrivalLane="a1o_2" arrivalPos="174.27" arrivalSpeed="19.94" duration="60.10" routeLength="393.21" waitingTime="28.90" waitingCount="1" stopTime="0.00" timeLoss="38.42" rerouteNo="0" devices="tripinfo_N_S.1 emissions_N_S.1" vType="car" speedFactor="1.10" vaporized="">
        <emissions CO_abs="7411.326618" CO2_abs="231020.587962" HC_abs="39.236069" PMx_abs="5.096810" NOx_abs="100.724441" fuel_abs="99.307645" electricity_abs="0"/>
    </tripinfo>
    <tripinfo id="N_S.3" depart="62.70" departLane="a3i_0" departPos="4.90" departSpeed="0.00" departDelay="0.00" arrival="101.50" arrivalLane="a1o_2" arrivalPos="174.27" arrivalSpeed="20.00" duration="38.80" routeLength="393.21" waitingTime="4.00" waitingCount="1" stopTime="0.00" timeLoss="16.87" rerouteNo="0" devices="tripinfo_N_S.3 emissions_N_S.3" vType="car" speedFactor="1.08" vaporized="">
        <emissions CO_abs="2729.582597" CO2_abs="156376.951169" HC_abs="16.166098" PMx_abs="3.187887" NOx_abs="66.175196" fuel_abs="67.219440" electricity_abs="0"/>
    </tripinfo>
    <tripinfo id="N_S.0" depart="25.80" departLane="a3i_0" departPos="4.90" departSpeed="0.00" departDelay="0.00" arrival="101.70" arrivalLane="a1o_1" arrivalPos="174.27" arrivalSpeed="16.80" duration="75.90" routeLength="393.21" waitingTime="42.10" waitingCount="1" stopTime="0.00" timeLoss="49.57" rerouteNo="0" devices="tripinfo_N_S.0 emissions_N_S.0" vType="car" speedFactor="0.89" vaporized="">
        <emissions CO_abs="9012.944638" CO2_abs="235901.605323" HC_abs="46.576924" PMx_abs="5.159921" NOx_abs="102.782460" fuel_abs="101.407102" electricity_abs="0"/>
    </tripinfo>
    <tripinfo id="S_S.0" depart="3.00" departLane="a1i_0" departPos="4.90" departSpeed="0.00" departDelay="0.00" arrival="102.20" arrivalLane="a3o_1" arrivalPos="178.50" arrivalSpeed="16.74" duration="99.20" routeLength="396.73" waitingTime="66.60" waitingCount="1" stopTime="0.00" timeLoss="77.19" rerouteNo="0" devices="tripinfo_S_S.0 emissions_S_S.0" vType="car" speedFactor="1.08" vaporized="">
        <emissions CO_abs="13410.160256" CO2_abs="319090.294443" HC_abs="68.585802" PMx_abs="7.281374" NOx_abs="141.128738" fuel_abs="137.168021" electricity_abs="0"/>
    </tripinfo>
    <tripinfo id="S_S.1" depart="6.90" departLane="a1i_0" departPos="4.90" departSpeed="0.00" departDelay="0.00" arrival="102.20" arrivalLane="a3o_2" arrivalPos="178.50" arrivalSpeed="16.77" duration="95.30" routeLength="396.73" waitingTime="61.00" waitingCount="1" stopTime="0.00" timeLoss="68.66" rerouteNo="0" devices="tripinfo_S_S.1 emissions_S_S.1" vType="car" speedFactor="0.89" vaporized="">
        <emissions CO_abs="12223.183980" CO2_abs="288740.660216" HC_abs="62.444790" PMx_abs="6.512156" NOx_abs="127.271741" fuel_abs="124.121745" electricity_abs="0"/>
    </tripinfo>
    <tripinfo id="N_S.4" depart="66.00" departLane="a3i_0" departPos="4.90" departSpeed="0.00" departDelay="3.20" arrival="102.60" arrivalLane="a1o_2" arrivalPos="174.27" arrivalSpeed="19.89" duration="36.60" routeLength="393.21" waitingTime="1.40" waitingCount="1" stopTime="0.00" timeLoss="15.09" rerouteNo="0" devices="tripinfo_N_S.4 emissions_N_S.4" vType="car" speedFactor="1.12" vaporized="">
        <emissions CO_abs="2810.323050" CO2_abs="158808.330581" HC_abs="16.593783" PMx_abs="3.250557" NOx_abs="67.294580" fuel_abs="68.264593" electricity_abs="0"/>
    </tripinfo>
    <tripinfo id="N_S.2" depart="54.60" departLane="a3i_0" departPos="4.90" departSpeed="0.00" departDelay="0.00" arrival="102.80" arrivalLane="a1o_1" arrivalPos="174.27" arrivalSpeed="19.26" duration="48.20" routeLength="393.21" waitingTime="12.00" waitingCount="1" stopTime="0.00" timeLoss="25.17" rerouteNo="0" devices="tripinfo_N_S.2 emissions_N_S.2" vType="car" speedFactor="1.02" vaporized="">
        <emissions CO_abs="3372.932781" CO2_abs="160458.407588" HC_abs="19.144822" PMx_abs="3.275361" NOx_abs="68.226903" fuel_abs="68.974322" electricity_abs="0"/>
    </tripinfo>
    <tripinfo id="S_S.3" depart="17.50" departLane="a1i_0" departPos="4.90" departSpeed="0.00" departDelay="1.10" arrival="103.30" arrivalLane="a3o_2" arrivalPos="178.50" arrivalSpeed="17.56" duration="85.80" routeLength="396.73" waitingTime="48.70" waitingCount="1" stopTime="0.00" timeLoss="60.38" rerouteNo="0" devices="tripinfo_S_S.3 emissions_S_S.3" vType="car" speedFactor="0.93" vaporized="">
        <emissions CO_abs="9154.667710" CO2_abs="243549.171470" HC_abs="47.412340" PMx_abs="5.338697" NOx_abs="106.209671" fuel_abs="104.694416" electricity_abs="0"/>
    </tripinfo>
    <tripinfo id="S_S.2" depart="9.20" departLane="a1i_0" departPos="4.90" departSpeed="0.00" departDelay="0.30" arrival="103.70" arrivalLane="a3o_1" arrivalPos="178.50" arrivalSpeed="16.27" duration="94.50" routeLength="396.73" waitingTime="56.70" waitingCount="1" stopTime="0.00" timeLoss="66.93" rerouteNo="0" devices="tripinfo_S_S.2 emissions_S_S.2" vType="car" speedFactor="0.86" vaporized="">
        <emissions CO_abs="10283.945634" CO2_abs="253565.357951" HC_abs="52.760003" PMx_abs="5.588540" NOx_abs="110.848472" fuel_abs="109.000660" electricity_abs="0"/>
    </tripinfo>
    <tripinfo id="N_S.5" depart="73.10" departLane="a3i_0" departPos="4.90" departSpeed="0.00" departDelay="0.00" arrival="103.90" arrivalLane="a1o_1" arrivalPos="174.27" arrivalSpeed="19.36" duration="30.80" routeLength="393.21" waitingTime="0.00" waitingCount="0" stopTime="0.00" timeLoss="7.86" rerouteNo="0" devices="tripinfo_N_S.5 emissions_N_S.5" vType="car" speedFactor="1.02" vaporized="">
        <emissions CO_abs="2131.830083" CO2_abs="138504.192677" HC_abs="12.978475" PMx_abs="2.685964" NOx_abs="57.737955" fuel_abs="59.536702" electricity_abs="0"/>
    </tripinfo>
    <tripinfo id="S_S.5" depart="29.40" departLane="a1i_0" departPos="4.90" departSpeed="0.00" departDelay="0.10" arrival="104.50" arrivalLane="a3o_2" arrivalPos="178.50" arrivalSpeed="17.67" duration="75.10" routeLength="396.73" waitingTime="37.80" waitingCount="1" stopTime="0.00" timeLoss="49.75" rerouteNo="0" devices="tripinfo_S_S.5 emissions_S_S.5" vType="car" speedFactor="0.93" vaporized="">
        <emissions CO_abs="7395.974453" CO2_abs="217310.379968" HC_abs="38.771527" PMx_abs="4.674063" NOx_abs="94.129392" fuel_abs="93.414632" electricity_abs="0"/>
    </tripinfo>
    <tripinfo id="S_S.4" depart="27.10" departLane="a1i_0" departPos="4.90" departSpeed="0.00" departDelay="0.00" arrival="105.20" arrivalLane="a3o_1" arrivalPos="178.50" arrivalSpeed="15.63" duration="78.10" routeLength="396.73" waitingTime="39.50" waitingCount="1" stopTime="0.00" timeLoss="49.50" rerouteNo="0" devices="tripinfo_S_S.4 emissions_S_S.4" vType="car" speedFactor="0.83" vaporized="">
        <emissions CO_abs="7400.786200" CO2_abs="203136.737296" HC_abs="38.447334" PMx_abs="4.336605" NOx_abs="87.896369" fuel_abs="87.322302" electricity_abs="0"/>
    </tripinfo>
    <tripinfo id="S_S.7" depart="45.40" departLane="a1i_0" departPos="4.90" departSpeed="0.00" departDelay="0.60" arrival="105.60" arrivalLane="a3o_2" arrivalPos="178.50" arrivalSpeed="18.15" duration="60.20" routeLength="396.73" waitingTime="22.70" waitingCount="1" stopTime="0.00" timeLoss="35.55" rerouteNo="0" devices="tripinfo_S_S.7 emissions_S_S.7" vType="car" speedFactor="0.96" vaporized="">