<?xml version="1.0" encoding="UTF-8"?>

<!-- generated on 11/27/19 10:39:09 by Eclipse SUMO GUI Version 1.3.1
<configuration xmlns:xsi="http://www.w3.org/2001/XMLSchema-instance" xsi:noNamespaceSchemaLocation="http://sumo.dlr.de/xsd/sumoConfiguration.xsd">

    <input>
        <net-file value="../cfg6/intersection.net.xml"/>
        <route-files value="../cfg6/intersection.rou.xml"/>
        <additional-files value="../cfg6/intersection.det.xml"/>
    </input>

    <output>
        <tripinfo-output value="../result/tripinfo22.xml"/>
    </output>

    <time>
        <begin value="0"/>
        <end value="3800"/>
        <step-length value="0.1"/>
    </time>

    <processing>
        <collision.action value="none"/>
    </processing>

    <emissions>
        <device.emissions.probability value="1"/>
    </emissions>

    <traci_server>
        <remote-port value="49920"/>
    </traci_server>

    <gui_only>
        <tracker-interval value="0.1"/>
    </gui_only>

</configuration>
-->

<tripinfos xmlns:xsi="http://www.w3.org/2001/XMLSchema-instance" xsi:noNamespaceSchemaLocation="http://sumo.dlr.de/xsd/tripinfo_file.xsd">
    <tripinfo id="E_R.0" depart="1.70" departLane="a2i_0" departPos="4.90" departSpeed="0.00" departDelay="0.00" arrival="29.60" arrivalLane="a3o_0" arrivalPos="178.50" arrivalSpeed="19.10" duration="27.90" routeLength="363.97" waitingTime="0.00" waitingCount="0" stopTime="0.00" timeLoss="5.56" rerouteNo="0" devices="tripinfo_E_R.0 emissions_E_R.0" vType="car" speedFactor="1.01" vaporized="">
        <emissions CO_abs="2109.153048" CO2_abs="132351.755964" HC_abs="12.762802" PMx_abs="2.628304" NOx_abs="55.568050" fuel_abs="56.892020" electricity_abs="0"/>
    </tripinfo>
    <tripinfo id="W_R.0" depart="5.20" departLane="a4i_0" departPos="4.90" departSpeed="0.00" departDelay="2.70" arrival="32.20" arrivalLane="a1o_0" arrivalPos="174.27" arrivalSpeed="19.86" duration="27.00" routeLength="355.03" waitingTime="0.00" waitingCount="0" stopTime="0.00" timeLoss="5.83" rerouteNo="0" devices="tripinfo_W_R.0 emissions_W_R.0" vType="car" speedFactor="1.05" vaporized="">
        <emissions CO_abs="2195.224336" CO2_abs="136530.620362" HC_abs="13.234713" PMx_abs="2.739658" NOx_abs="57.455496" fuel_abs="58.688298" electricity_abs="0"/>
    </tripinfo>
    <tripinfo id="N_L.0" depart="6.60" departLane="a3i_0" departPos="4.90" departSpeed="0.00" departDelay="0.00" arrival="34.90" arrivalLane="a2o_2" arrivalPos="181.00" arrivalSpeed="19.93" duration="28.30" routeLength="393.34" waitingTime="0.00" waitingCount="0" stopTime="0.00" timeLoss="5.83" rerouteNo="0" devices="tripinfo_N_L.0 emissions_N_L.0" vType="car" speedFactor="1.09" vaporized="">
        <emissions CO_abs="2225.942092" CO2_abs="143836.754401" HC_abs="13.541273" PMx_abs="2.879250" NOx_abs="60.295174" fuel_abs="61.828826" electricity_abs="0"/>
    </tripinfo>
    <tripinfo id="N_R.0" depart="7.50" departLane="a3i_0" departPos="4.90" departSpeed="0.00" departDelay="0.60" arrival="35.20" arrivalLane="a4o_0" arrivalPos="176.18" arrivalSpeed="18.78" duration="27.70" routeLength="365.95" waitingTime="0.00" waitingCount="0" stopTime="0.00" timeLoss="4.79" rerouteNo="0" devices="tripinfo_N_R.0 emissions_N_R.0" vType="car" speedFactor="0.99" vaporized="">
        <emissions CO_abs="1963.459821" CO2_abs="125376.126846" HC_abs="11.916233" PMx_abs="2.467556" NOx_abs="52.481030" fuel_abs="53.893516" electricity_abs="0"/>
    </tripinfo>
    <tripinfo id="W_R.1" depart="9.80" departLane="a4i_0" departPos="4.90" departSpeed="0.00" departDelay="0.00" arrival="38.80" arrivalLane="a1o_0" arrivalPos="174.27" arrivalSpeed="17.72" duration="29.00" routeLength="355.03" waitingTime="0.00" waitingCount="0" stopTime="0.00" timeLoss="5.27" rerouteNo="0" devices="tripinfo_W_R.1 emissions_W_R.1" vType="car" speedFactor="0.94" vaporized="">
        <emissions CO_abs="1954.879464" CO2_abs="120583.488475" HC_abs="11.761660" PMx_abs="2.328371" NOx_abs="50.356408" fuel_abs="51.833488" electricity_abs="0"/>
    </tripinfo>
    <tripinfo id="N_R.1" depart="9.80" departLane="a3i_0" departPos="4.90" departSpeed="0.00" departDelay="1.20" arrival="39.00" arrivalLane="a4o_0" arrivalPos="176.18" arrivalSpeed="17.55" duration="29.20" routeLength="365.95" waitingTime="0.00" waitingCount="0" stopTime="0.00" timeLoss="4.61" rerouteNo="0" devices="tripinfo_N_R.1 emissions_N_R.1" vType="car" speedFactor="0.93" vaporized="">
        <emissions CO_abs="1872.239063" CO2_abs="119383.580723" HC_abs="11.314699" PMx_abs="2.287303" NOx_abs="49.649418" fuel_abs="51.317676" electricity_abs="0"/>
    </tripinfo>
    <tripinfo id="E_R.1" depart="10.90" departLane="a2i_0" departPos="4.90" departSpeed="0.00" departDelay="4.80" arrival="41.90" arrivalLane="a3o_0" arrivalPos="178.50" arrivalSpeed="16.24" duration="31.00" routeLength="363.97" waitingTime="0.00" waitingCount="0" stopTime="0.00" timeLoss="4.66" rerouteNo="0" devices="tripinfo_E_R.1 emissions_E_R.1" vType="car" speedFactor="0.86" vaporized="">
        <emissions CO_abs="1785.283788" CO2_abs="110826.593775" HC_abs="10.723455" PMx_abs="2.064998" NOx_abs="45.843129" fuel_abs="47.639528" electricity_abs="0"/>
    </tripinfo>
    <tripinfo id="S_R.0" depart="16.10" departLane="a1i_0" departPos="4.90" departSpeed="0.00" departDelay="0.90" arrival="42.60" arrivalLane="a2o_0" arrivalPos="181.00" arrivalSpeed="19.89" duration="26.50" routeLength="371.93" waitingTime="0.00" waitingCount="0" stopTime="0.00" timeLoss="5.64" rerouteNo="0" devices="tripinfo_S_R.0 emissions_S_R.0" vType="car" speedFactor="1.13" vaporized="">
        <emissions CO_abs="2826.137255" CO2_abs="172888.230110" HC_abs="17.032362" PMx_abs="3.665493" NOx_abs="74.193233" fuel_abs="74.316506" electricity_abs="0"/>
    </tripinfo>
    <tripinfo id="W_R.2" depart="14.50" departLane="a4i_0" departPos="4.90" departSpeed="0.00" departDelay="0.00" arrival="43.90" arrivalLane="a1o_0" arrivalPos="174.27" arrivalSpeed="17.38" duration="29.40" routeLength="355.03" waitingTime="0.00" waitingCount="0" stopTime="0.00" timeLoss="5.20" rerouteNo="0" devices="tripinfo_W_R.2 emissions_W_R.2" vType="car" speedFactor="0.92" vaporized="">
        <emissions CO_abs="1915.538179" CO2_abs="118740.788934" HC_abs="11.536093" PMx_abs="2.275312" NOx_abs="49.478156" fuel_abs="51.041411" electricity_abs="0"/>
    </tripinfo>
    <tripinfo id="W_R.3" depart="19.10" departLane="a4i_0" departPos="4.90" departSpeed="0.00" departDelay="3.80" arrival="48.10" arrivalLane="a1o_0" arrivalPos="174.27" arrivalSpeed="17.66" duration="29.00" routeLength="355.03" waitingTime="0.00" waitingCount="0" stopTime="0.00" timeLoss="5.22" rerouteNo="0" devices="tripinfo_W_R.3 emissions_W_R.3" vType="car" speedFactor="0.93" vaporized="">
        <emissions CO_abs="1931.390941" CO2_abs="121300.495778" HC_abs="11.660128" PMx_abs="2.322982" NOx_abs="50.474269" fuel_abs="52.141701" electricity_abs="0"/>
    </tripinfo>
    <tripinfo id="N_R.2" depart="22.80" departLane="a3i_0" departPos="4.90" departSpeed="0.00" departDelay="0.00" arrival="49.80" arrivalLane="a4o_0" arrivalPos="176.18" arrivalSpeed="19.55" duration="27.00" routeLength="365.95" waitingTime="0.00" waitingCount="0" stopTime="0.00" timeLoss="4.94" rerouteNo="0" devices="tripinfo_N_R.2 emissions_N_R.2" vType="car" speedFactor="1.03" vaporized="">
        <emissions CO_abs="2135.239668" CO2_abs="132454.657227" HC_abs="12.884267" PMx_abs="2.690356" NOx_abs="56.045658" fuel_abs="56.936175" electricity_abs="0"/>
    </tripinfo>
    <tripinfo id="E_S.3" depart="13.20" departLane="a2i_0" departPos="4.90" departSpeed="0.00" departDelay="6.40" arrival="50.30" arrivalLane="a4o_3" arrivalPos="176.18" arrivalSpeed="19.81" duration="37.10" routeLength="395.22" waitingTime="5.10" waitingCount="1" stopTime="0.00" timeLoss="14.54" rerouteNo="0" devices="tripinfo_E_S.3 emissions_E_S.3" vType="car" speedFactor="1.05" vaporized="">
        <emissions CO_abs="3490.037823" CO2_abs="167260.950608" HC_abs="19.884598" PMx_abs="3.496903" NOx_abs="71.586637" fuel_abs="71.898313" electricity_abs="0"/>
    </tripinfo>
    <tripinfo id="W_S.1" depart="2.90" departLane="a4i_0" departPos="4.90" departSpeed="0.00" departDelay="0.70" arrival="50.50" arrivalLane="a2o_2" arrivalPos="181.00" arrivalSpeed="19.55" duration="47.60" routeLength="395.22" waitingTime="15.90" waitingCount="1" stopTime="0.00" timeLoss="24.80" rerouteNo="0" devices="tripinfo_W_S.1 emissions_W_S.1" vType="car" speedFactor="1.03" vaporized="">
        <emissions CO_abs="5141.850134" CO2_abs="192962.273084" HC_abs="27.988679" PMx_abs="4.097938" NOx_abs="82.922412" fuel_abs="82.947073" electricity_abs="0"/>
    </tripinfo>
    <tripinfo id="W_S.0" depart="0.00" departLane="a4i_0" departPos="4.90" departSpeed="0.00" departDelay="0.00" arrival="50.80" arrivalLane="a2o_1" arrivalPos="181.00" arrivalSpeed="19.94" duration="50.80" routeLength="395.22" waitingTime="19.20" waitingCount="1" stopTime="0.00" timeLoss="28.50" rerouteNo="0" devices="tripinfo_W_S.0 emissions_W_S.0" vType="car" speedFactor="1.06" vaporized="">
        <emissions CO_abs="5686.444064" CO2_abs="201268.614351" HC_abs="30.659682" PMx_abs="4.303696" NOx_abs="86.651946" fuel_abs="86.517884" electricity_abs="0"/>
    </tripinfo>
    <tripinfo id="E_S.0" depart="4.00" departLane="a2i_0" departPos="4.90" departSpeed="0.00" departDelay="2.00" arrival="51.00" arrivalLane="a4o_1" arrivalPos="176.18" arrivalSpeed="17.82" duration="47.00" routeLength="395.22" waitingTime="14.90" waitingCount="1" stopTime="0.00" timeLoss="24.97" rerouteNo="0" devices="tripinfo_E_S.0 emissions_E_S.0" vType="car" speedFactor="1.08" vaporized="">
        <emissions CO_abs="4821.383983" CO2_abs="181004.646981" HC_abs="26.238646" PMx_abs="3.806326" NOx_abs="77.623373" fuel_abs="77.806996" electricity_abs="0"/>
    </tripinfo>
    <tripinfo id="E_S.2" depart="8.60" departLane="a2i_0" departPos="4.90" departSpeed="0.00" departDelay="3.90" arrival="51.00" arrivalLane="a4o_2" arrivalPos="176.18" arrivalSpeed="17.71" duration="42.40" routeLength="395.22" waitingTime="9.10" waitingCount="1" stopTime="0.00" timeLoss="17.24" rerouteNo="0" devices="tripinfo_E_S.2 emissions_E_S.2" vType="car" speedFactor="0.94" vaporized="">
        <emissions CO_abs="3892.062844" CO2_abs="164770.594956" HC_abs="21.633849" PMx_abs="3.404976" NOx_abs="70.392447" fuel_abs="70.828252" electricity_abs="0"/>
    </tripinfo>
    <tripinfo id="W_S.3" depart="16.80" departLane="a4i_0" departPos="4.90" departSpeed="0.00" departDelay="2.20" arrival="51.20" arrivalLane="a2o_3" arrivalPos="181.00" arrivalSpeed="17.92" duration="34.40" routeLength="395.22" waitingTime="1.00" waitingCount="1" stopTime="0.00" timeLoss="9.62" rerouteNo="0" devices="tripinfo_W_S.3 emissions_W_S.3" vType="car" speedFactor="0.95" vaporized="">
        <emissions CO_abs="2555.990639" CO2_abs="143066.808710" HC_abs="15.020116" PMx_abs="2.851139" NOx_abs="60.327056" fuel_abs="61.498131" electricity_abs="0"/>
    </tripinfo>
    <tripinfo id="E_S.8" depart="25.30" departLane="a2i_0" departPos="4.90" departSpeed="0.00" departDelay="9.10" arrival="51.40" arrivalLane="a4o_3" arrivalPos="176.18" arrivalSpeed="19.91" duration="26.10" routeLength="395.22" waitingTime="0.00" waitingCount="0" stopTime="0.00" timeLoss="5.15" rerouteNo="0" devices="tripinfo_E_S.8 emissions_E_S.8" vType="car" speedFactor="1.18" vaporized="">
        <emissions CO_abs="1956.125745" CO2_abs="130069.482258" HC_abs="12.030140" PMx_abs="2.616056" NOx_abs="54.370334" fuel_abs="55.910871" electricity_abs="0"/>
    </tripinfo>
    <tripinfo id="E_S.4" depart="15.50" departLane="a2i_0" departPos="4.90" departSpeed="0.00" departDelay="6.60" arrival="52.10" arrivalLane="a4o_2" arrivalPos="176.18" arrivalSpeed="17.78" duration="36.60" routeLength="395.22" waitingTime="0.10" waitingCount="1" stopTime="0.00" timeLoss="11.61" rerouteNo="0" devices="tripinfo_E_S.4 emissions_E_S.4" vType="car" speedFactor="0.94" vaporized="">
        <emissions CO_abs="2354.574768" CO2_abs="135911.234907" HC_abs="13.933718" PMx_abs="2.658304" NOx_abs="56.944504" fuel_abs="58.422284" electricity_abs="0"/>
    </tripinfo>
    <tripinfo id="W_S.4" depart="21.40" departLane="a4i_0" departPos="4.90" departSpeed="0.00" departDelay="3.70" arrival="52.10" arrivalLane="a2o_2" arrivalPos="181.00" arrivalSpeed="18.90" duration="30.70" routeLength="395.22" waitingTime="0.00" waitingCount="0" stopTime="0.00" timeLoss="7.10" rerouteNo="0" devices="tripinfo_W_S.4 emissions_W_S.4" vType="car" speedFactor="0.99" vaporized="">
        <emissions CO_abs="2112.405635" CO2_abs="135338.251800" HC_abs="12.802798" PMx_abs="2.636055" NOx_abs="56.411698" fuel_abs="58.175820" electricity_abs="0"/>
    </tripinfo>
    <tripinfo id="W_S.2" depart="7.50" departLane="a4i_0" departPos="4.90" departSpeed="0.00" departDelay="0.90" arrival="52.30" arrivalLane="a2o_1" arrivalPos="181.00" arrivalSpeed="19.37" duration="44.80" routeLength="395.22" waitingTime="9.40" waitingCount="1" stopTime="0.00" timeLoss="21.90" rerouteNo="0" devices="tripinfo_W_S.2 emissions_W_S.2" vType="car" speedFactor="1.03" vaporized="">
        <emissions CO_abs="2873.884353" CO2_abs="151565.385789" HC_abs="16.665650" PMx_abs="3.058902" NOx_abs="64.013477" fuel_abs="65.151393" electricity_abs="0"/>
    </tripinfo>
    <tripinfo id="W_S.6" depart="26.20" departLane="a4i_0" departPos="4.90" departSpeed="0.00" departDelay="1.10" arrival="52.40" arrivalLane="a2o_3" arrivalPos="181.00" arrivalSpeed="19.90" duration="26.20" routeLength="395.22" waitingTime="0.00" waitingCount="0" stopTime="0.00" timeLoss="4.34" rerouteNo="0" devices="tripinfo_W_S.6 emissions_W_S.6" vType="car" speedFactor="1.09" vaporized="">
        <emissions CO_abs="1994.435401" CO2_abs="129457.944413" HC_abs="12.183647" PMx_abs="2.638790" NOx_abs="54.458481" fuel_abs="55.647972" electricity_abs="0"/>
    </tripinfo>
    <tripinfo id="E_S.1" depart="6.30" departLane="a2i_0" departPos="4.90" departSpeed="0.00" departDelay="4.00" arrival="53.20" arrivalLane="a4o_1" arrivalPos="176.18" arrivalSpeed="15.69" duration="46.90" routeLength="395.22" waitingTime="8.70" waitingCount="1" stopTime="0.00" timeLoss="18.59" rerouteNo="0" devices="tripinfo_E_S.1 emissions_E_S.1" vType="car" speedFactor="0.83" vaporized="">
        <emissions CO_abs="2299.327824" CO2_abs="122709.322872" HC_abs="13.340087" PMx_abs="2.306897" NOx_abs="50.909844" fuel_abs="52.747640" electricity_abs="0"/>
    </tripinfo>
    <tripinfo id="W_S.5" depart="23.90" departLane="a4i_0" departPos="4.90" departSpeed="0.00" departDelay="0.00" arrival="53.40" arrivalLane="a2o_1" arrivalPos="181.00" arrivalSpeed="19.98" duration="29.50" routeLength="395.22" waitingTime="0.00" waitingCount="0" stopTime="0.00" timeLoss="7.61" rerouteNo="0" devices="tripinfo_W_S.5 emissions_W_S.5" vType="car" speedFactor="1.09" vaporized="">
        <emissions CO_abs="2217.276746" CO2_abs="144582.297009" HC_abs="13.537928" PMx_abs="2.873714" NOx_abs="60.605320" fuel_abs="62.149306" electricity_abs="0"/>
    </tripinfo>
    <tripinfo id="E_S.5" depart="17.80" departLane="a2i_0" departPos="4.90" departSpeed="0.00" departDelay="6.80" arrival="54.40" arrivalLane="a4o_1" arrivalPos="176.18" arrivalSpeed="17.88" duration="36.60" routeLength="395.22" waitingTime="0.00" waitingCount="0" stopTime="0.00" timeLoss="13.44" rerouteNo="0" devices="tripinfo_E_S.5 emissions_E_S.5" vType="car" speedFactor="1.02" vaporized="">
        <emissions CO_abs="2490.961223" CO2_abs="145961.297902" HC_abs="14.779778" PMx_abs="2.844753" NOx_abs="61.179109" fuel_abs="62.742337" electricity_abs="0"/>
    </tripinfo>
    <tripinfo id="E_S.6" depart="20.70" departLane="a2i_0" departPos="4.90" departSpeed="0.00" departDelay="8.00" arrival="54.40" arrivalLane="a4o_2" arrivalPos="176.18" arrivalSpeed="15.64" duration="33.70" routeLength="395.22" waitingTime="0.00" waitingCount="0" stopTime="0.00" timeLoss="5.21" rerouteNo="0" devices="tripinfo_E_S.6 emissions_E_S.6" vType="car" speedFactor="0.83" vaporized="">
        <emissions CO_abs="1767.190343" CO2_abs="111111.586330" HC_abs="10.656428" PMx_abs="2.043036" NOx_abs="45.819412" fuel_abs="47.762056" electricity_abs="0"/>
    </tripinfo>
    <tripinfo id="E_S.7" depart="23.00" departLane="a2i_0" departPos="4.90" departSpeed="0.00" departDelay="9.10" arrival="55.60" arrivalLane="a4o_1" arrivalPos="176.18" arrivalSpeed="16.50" duration="32.60" routeLength="395.22" waitingTime="0.00" waitingCount="0" stopTime="0.00" timeLoss="5.59" rerouteNo="0" devices="tripinfo_E_S.7 emissions_E_S.7" vType="car" speedFactor="0.87" vaporized="">
        <emissions CO_abs="1803.041156" CO2_abs="120664.293445" HC_abs="11.048089" PMx_abs="2.203049" NOx_abs="49.503000" fuel_abs="51.868291" electricity_abs="0"/>
    </tripinfo>
    <tripinfo id="E_S.9" depart="27.60" departLane="a2i_0" departPos="4.90" departSpeed="0.00" departDelay="10.90" arrival="55.60" arrivalLane="a4o_2" arrivalPos="176.18" arrivalSpeed="18.75" duration="28.00" routeLength="395.22" waitingTime="0.00" waitingCount="0" stopTime="0.00" timeLoss="4.59" rerouteNo="0" devices="tripinfo_E_S.9 emissions_E_S.9" vType="car" speedFactor="1.01" vaporized="">
        <emissions CO_abs="1728.347101" CO2_abs="114964.560791" HC_abs="10.571071" PMx_abs="2.249581" NOx_abs="47.918580" fuel_abs="49.418021" electricity_abs="0"/>
    </tripinfo>
    <tripinfo id="W_S.8" depart="30.80" departLane="a4i_0" departPos="4.90" departSpeed="0.00" departDelay="3.60" arrival="55.60" arrivalLane="a2o_2" arrivalPos="181.00" arrivalSpeed="19.92" duration="24.80" routeLength="395.22" waitingTime="0.00" waitingCount="0" stopTime="0.00" timeLoss="3.74" rerouteNo="0" devices="tripinfo_W_S.8 emissions_W_S.8" vType="car" speedFactor="1.17" vaporized="">
        <emissions CO_abs="1613.870870" CO2_abs="112859.976903" HC_abs="10.019204" PMx_abs="2.204259" NOx_abs="46.316335" fuel_abs="48.513366" electricity_abs="0"/>
    </tripinfo>
    <tripinfo id="E_S.11" depart="32.10" departLane="a2i_0" departPos="4.90" departSpeed="0.00" departDelay="11.80" arrival="57.00" arrivalLane="a4o_2" arrivalPos="176.18" arrivalSpeed="19.94" duration="24.90" routeLength="395.22" waitingTime="0.00" waitingCount="0" stopTime="0.00" timeLoss="3.99" rerouteNo="0" devices="tripinfo_E_S.11 emissions_E_S.11" vType="car" speedFactor="1.18" vaporized="">
        <emissions CO_abs="1748.260558" CO2_abs="118358.632547" HC_abs="10.781396" PMx_abs="2.362003" NOx_abs="49.101646" fuel_abs="50.876940" electricity_abs="0"/>
    </tripinfo>
    <tripinfo id="E_S.10" depart="29.90" departLane="a2i_0" departPos="4.90" departSpeed="0.00" departDelay="11.70" arrival="57.20" arrivalLane="a4o_1" arrivalPos="176.18" arrivalSpeed="18.47" duration="27.30" routeLength="395.22" waitingTime="0.00" waitingCount="0" stopTime="0.00" timeLoss="3.11" rerouteNo="0" devices="tripinfo_E_S.10 emissions_E_S.10" vType="car" speedFactor="0.97" vaporized="">
        <emissions CO_abs="1584.377768" CO2_abs="111776.060294" HC_abs="9.827402" PMx_abs="2.117236" NOx_abs="45.816098" fuel_abs="48.047487" electricity_abs="0"/>
    </tripinfo>
    <tripinfo id="W_S.7" depart="28.50" departLane="a4i_0" departPos="4.90" departSpeed="0.00" departDelay="1.60" arrival="58.90" arrivalLane="a2o_1" arrivalPos="181.00" arrivalSpeed="16.13" duration="30.40" routeLength="395.22" waitingTime="0.00" waitingCount="0" stopTime="0.00" timeLoss="2.77" rerouteNo="0" devices="tripinfo_W_S.7 emissions_W_S.7" vType="car" speedFactor="0.85" vaporized="">
        <emissions CO_abs="1295.471286" CO2_abs="95792.830856" HC_abs="8.103132" PMx_abs="1.649423" NOx_abs="38.337080" fuel_abs="41.177201" electricity_abs="0"/>
    </tripinfo>
    <tripinfo id="W_R.4" depart="33.10" departLane="a4i_0" departPos="4.90" departSpeed="0.00" departDelay="5.90" arrival="60.60" arrivalLane="a1o_0" arrivalPos="174.27" arrivalSpeed="19.21" duration="27.50" routeLength="355.03" waitingTime="0.00" waitingCount="0" stopTime="0.00" timeLoss="5.67" rerouteNo="0" devices="tripinfo_W_R.4 emissions_W_R.4" vType="car" speedFactor="1.02" vaporized="">
        <emissions CO_abs="2116.828824" CO2_abs="128025.121146" HC_abs="12.698335" PMx_abs="2.580220" NOx_abs="54.144609" fuel_abs="55.032188" electricity_abs="0"/>
    </tripinfo>
    <tripinfo id="S_R.1" depart="34.20" departLane="a1i_0" departPos="4.90" departSpeed="0.00" departDelay="3.20" arrival="61.80" arrivalLane="a2o_0" arrivalPos="181.00" arrivalSpeed="19.20" duration="27.60" routeLength="371.93" waitingTime="0.00" waitingCount="0" stopTime="0.00" timeLoss="5.10" rerouteNo="0" devices="tripinfo_S_R.1 emissions_S_R.1" vType="car" speedFactor="1.02" vaporized="">
        <emissions CO_abs="2088.962946" CO2_abs="132198.293019" HC_abs="12.639905" PMx_abs="2.640223" NOx_abs="55.567638" fuel_abs="56.826012" electricity_abs="0"/>
    </tripinfo>
    <tripinfo id="E_S.13" depart="37.30" departLane="a2i_0" departPos="4.90" departSpeed="0.00" departDelay="9.60" arrival="62.80" arrivalLane="a4o_2" arrivalPos="176.18" arrivalSpeed="19.98" duration="25.50" routeLength="395.22" waitingTime="0.00" waitingCount="0" stopTime="0.00" timeLoss="3.67" rerouteNo="0" devices="tripinfo_E_S.13 emissions_E_S.13" vType="car" speedFactor="1.10" vaporized="">
        <emissions CO_abs="1687.303010" CO2_abs="116547.203645" HC_abs="10.465388" PMx_abs="2.292639" NOx_abs="48.131953" fuel_abs="50.098314" electricity_abs="0"/>
    </tripinfo>
    <tripinfo id="E_S.12" depart="35.00" departLane="a2i_0" departPos="4.90" departSpeed="0.00" departDelay="12.70" arrival="64.10" arrivalLane="a4o_1" arrivalPos="176.18" arrivalSpeed="17.06" duration="29.10" routeLength="395.22" waitingTime="0.00" waitingCount="0" stopTime="0.00" timeLoss="2.96" rerouteNo="0" devices="tripinfo_E_S.12 emissions_E_S.12" vType="car" speedFactor="0.90" vaporized="">
        <emissions CO_abs="1335.690225" CO2_abs="98405.583288" HC_abs="8.356085" PMx_abs="1.740888" NOx_abs="39.579969" fuel_abs="42.300254" electricity_abs="0"/>
    </tripinfo>
    <tripinfo id="W_S.9" depart="35.40" departLane="a4i_0" departPos="4.90" departSpeed="0.00" departDelay="2.90" arrival="65.00" arrivalLane="a2o_1" arrivalPos="181.00" arrivalSpeed="16.67" duration="29.60" routeLength="395.22" waitingTime="0.00" waitingCount="0" stopTime="0.00" timeLoss="2.92" rerouteNo="0" devices="tripinfo_W_S.9 emissions_W_S.9" vType="car" speedFactor="0.88" vaporized="">
        <emissions CO_abs="1354.446197" CO2_abs="96427.698055" HC_abs="8.395455" PMx_abs="1.719166" NOx_abs="38.995733" fuel_abs="41.450054" electricity_abs="0"/>
    </tripinfo>
    <tripinfo id="W_S.10" depart="37.70" departLane="a4i_0" departPos="4.90" departSpeed="0.00" departDelay="0.90" arrival="66.10" arrivalLane="a2o_1" arrivalPos="181.00" arrivalSpeed="18.41" duration="28.40" routeLength="395.22" waitingTime="0.00" waitingCount="0" stopTime="0.00" timeLoss="4.25" rerouteNo="0" devices="tripinfo_W_S.10 emissions_W_S.10" vType="car" speedFactor="0.97" vaporized="">
        <emissions CO_abs="1594.164856" CO2_abs="112345.939384" HC_abs="9.914356" PMx_abs="2.115432" NOx_abs="46.163380" fuel_abs="48.292459" electricity_abs="0"/>
    </tripinfo>
    <tripinfo id="E_S.14" depart="40.10" departLane="a2i_0" departPos="4.90" departSpeed="0.00" departDelay="12.10" arrival="67.00" arrivalLane="a4o_1" arrivalPos="176.18" arrivalSpeed="18.84" duration="26.90" routeLength="395.22" waitingTime="0.00" waitingCount="0" stopTime="0.00" timeLoss="3.19" rerouteNo="0" devices="tripinfo_E_S.14 emissions_E_S.14" vType="car" speedFactor="1.00" vaporized="">
        <emissions CO_abs="1529.775217" CO2_abs="107975.614819" HC_abs="9.507408" PMx_abs="2.048032" NOx_abs="44.219888" fuel_abs="46.413851" electricity_abs="0"/>
    </tripinfo>
    <tripinfo id="W_S.11" depart="40.00" departLane="a4i_0" departPos="4.90" departSpeed="0.00" departDelay="0.90" arrival="67.20" arrivalLane="a2o_1" arrivalPos="181.00" arrivalSpeed="19.55" duration="27.20" routeLength="395.22" waitingTime="0.00" waitingCount="0" stopTime="0.00" timeLoss="4.44" rerouteNo="0" devices="tripinfo_W_S.11 emissions_W_S.11" vType="car" speedFactor="1.03" vaporized="">
        <emissions CO_abs="1686.270582" CO2_abs="116710.716345" HC_abs="10.426919" PMx_abs="2.253477" NOx_abs="48.211216" fuel_abs="50.168628" electricity_abs="0"/>
    </tripinfo>
    <tripinfo id="S_R.2" depart="39.20" departLane="a1i_0" departPos="4.90" departSpeed="0.00" departDelay="0.00" arrival="67.70" arrivalLane="a2o_0" arrivalPos="181.00" arrivalSpeed="18.62" duration="28.50" routeLength="371.93" waitingTime="0.00" waitingCount="0" stopTime="0.00" timeLoss="5.26" rerouteNo="0" devices="tripinfo_S_R.2 emissions_S_R.2" vType="car" speedFactor="0.98" vaporized="">
        <emissions CO_abs="2301.521875" CO2_abs="138068.263002" HC_abs="13.797803" PMx_abs="2.854007" NOx_abs="59.062789" fuel_abs="59.349165" electricity_abs="0"/>
    </tripinfo>
    <tripinfo id="N_R.3" depart="40.50" departLane="a3i_0" departPos="4.90" departSpeed="0.00" departDelay="8.90" arrival="68.40" arrivalLane="a4o_0" arrivalPos="176.18" arrivalSpeed="18.65" duration="27.90" routeLength="365.95" waitingTime="0.00" waitingCount="0" stopTime="0.00" timeLoss="4.84" rerouteNo="0" devices="tripinfo_N_R.3 emissions_N_R.3" vType="car" speedFactor="0.99" vaporized="">
        <emissions CO_abs="1984.786277" CO2_abs="126791.747541" HC_abs="12.027860" PMx_abs="2.494644" NOx_abs="53.059073" fuel_abs="54.502025" electricity_abs="0"/>
    </tripinfo>
    <tripinfo id="E_R.2" depart="42.60" departLane="a2i_0" departPos="4.90" departSpeed="0.00" departDelay="12.70" arrival="69.50" arrivalLane="a3o_0" arrivalPos="178.50" arrivalSpeed="19.92" duration="26.90" routeLength="363.97" waitingTime="0.00" waitingCount="0" stopTime="0.00" timeLoss="5.74" rerouteNo="0" devices="tripinfo_E_R.2 emissions_E_R.2" vType="car" speedFactor="1.08" vaporized="">
        <emissions CO_abs="2236.208126" CO2_abs="137309.345088" HC_abs="13.476955" PMx_abs="2.809379" NOx_abs="58.235403" fuel_abs="59.022973" electricity_abs="0"/>
    </tripinfo>
    <tripinfo id="S_R.3" depart="43.90" departLane="a1i_0" departPos="4.90" departSpeed="0.00" departDelay="1.30" arrival="71.70" arrivalLane="a2o_0" arrivalPos="181.00" arrivalSpeed="18.92" duration="27.80" routeLength="371.93" waitingTime="0.00" waitingCount="0" stopTime="0.00" timeLoss="4.88" rerouteNo="0" devices="tripinfo_S_R.3 emissions_S_R.3" vType="car" speedFactor="1.00" vaporized="">
        <emissions CO_abs="2034.696768" CO2_abs="130510.438142" HC_abs="12.343486" PMx_abs="2.579678" NOx_abs="54.648852" fuel_abs="56.100501" electricity_abs="0"/>
    </tripinfo>
    <tripinfo id="N_R.4" depart="43.50" departLane="a3i_0" departPos="4.90" departSpeed="0.00" departDelay="5.50" arrival="72.00" arrivalLane="a4o_0" arrivalPos="176.18" arrivalSpeed="18.15" duration="28.50" routeLength="365.95" waitingTime="0.00" waitingCount="0" stopTime="0.00" timeLoss="4.66" rerouteNo="0" devices="tripinfo_N_R.4 emissions_N_R.4" vType="car" speedFactor="0.96" vaporized="">
        <emissions CO_abs="1885.277164" CO2_abs="121732.230438" HC_abs="11.460489" PMx_abs="2.350892" NOx_abs="50.674511" fuel_abs="52.327219" electricity_abs="0"/>
    </tripinfo>
    <tripinfo id="E_R.3" depart="44.90" departLane="a2i_0" departPos="4.90" departSpeed="0.00" departDelay="11.40" arrival="74.70" arrivalLane="a3o_0" arrivalPos="178.50" arrivalSpeed="17.14" duration="29.80" routeLength="363.97" waitingTime="0.00" waitingCount="0" stopTime="0.00" timeLoss="4.94" rerouteNo="0" devices="tripinfo_E_R.3 emissions_E_R.3" vType="car" speedFactor="0.91" vaporized="">
        <emissions CO_abs="1872.380870" CO2_abs="116266.895418" HC_abs="11.265302" PMx_abs="2.221669" NOx_abs="48.416069" fuel_abs="49.977997" electricity_abs="0"/>
    </tripinfo>
    <tripinfo id="E_S.15" depart="49.50" departLane="a2i_0" departPos="4.90" departSpeed="0.00" departDelay="14.30" arrival="75.60" arrivalLane="a4o_1" arrivalPos="176.18" arrivalSpeed="19.74" duration="26.10" routeLength="395.22" waitingTime="0.00" waitingCount="0" stopTime="0.00" timeLoss="3.38" rerouteNo="0" devices="tripinfo_E_S.15 emissions_E_S.15" vType="car" speedFactor="1.04" vaporized="">
        <emissions CO_abs="1567.701079" CO2_abs="110484.841270" HC_abs="9.721908" PMx_abs="2.115883" NOx_abs="45.216684" fuel_abs="47.492438" electricity_abs="0"/>
    </tripinfo>
    <tripinfo id="N_R.5" depart="48.10" departLane="a3i_0" departPos="4.90" departSpeed="0.00" departDelay="0.90" arrival="75.80" arrivalLane="a4o_0" arrivalPos="176.18" arrivalSpeed="18.95" duration="27.70" routeLength="365.95" waitingTime="0.00" waitingCount="0" stopTime="0.00" timeLoss="4.99" rerouteNo="0" devices="tripinfo_N_R.5 emissions_N_R.5" vType="car" speedFactor="1.00" vaporized="">
        <emissions CO_abs="2012.927295" CO2_abs="129923.952283" HC_abs="12.241539" PMx_abs="2.544244" NOx_abs="54.242471" fuel_abs="55.848426" electricity_abs="0"/>
    </tripinfo>
    <tripinfo id="E_R.4" depart="47.20" departLane="a2i_0" departPos="4.90" departSpeed="0.00" departDelay="13.50" arrival="77.30" arrivalLane="a3o_0" arrivalPos="178.50" arrivalSpeed="17.33" duration="30.10" routeLength="363.97" waitingTime="0.00" waitingCount="0" stopTime="0.00" timeLoss="5.47" rerouteNo="0" devices="tripinfo_E_R.4 emissions_E_R.4" vType="car" speedFactor="0.91" vaporized="">
        <emissions CO_abs="1851.572381" CO2_abs="114994.068631" HC_abs="11.141307" PMx_abs="2.208562" NOx_abs="47.935801" fuel_abs="49.430850" electricity_abs="0"/>
    </tripinfo>
    <tripinfo id="E_S.16" depart="51.80" departLane="a2i_0" departPos="4.90" departSpeed="0.00" departDelay="16.30" arrival="78.20" arrivalLane="a4o_1" arrivalPos="176.18" arrivalSpeed="19.33" duration="26.40" routeLength="395.22" waitingTime="0.00" waitingCount="0" stopTime="0.00" timeLoss="3.35" rerouteNo="0" devices="tripinfo_E_S.16 emissions_E_S.16" vType="car" speedFactor="1.02" vaporized="">