<?xml version="1.0" encoding="UTF-8"?>

<!-- generated on 12/04/19 22:51:49 by Eclipse SUMO GUI Version 1.3.1
<configuration xmlns:xsi="http://www.w3.org/2001/XMLSchema-instance" xsi:noNamespaceSchemaLocation="http://sumo.dlr.de/xsd/sumoConfiguration.xsd">

    <input>
        <net-file value="../cfg1B/intersection.net.xml"/>
        <route-files value="../cfg1B/intersection.rou.xml"/>
        <additional-files value="../cfg1B/intersection.det.xml"/>
    </input>

    <output>
        <tripinfo-output value="../result/tripinfo10B.xml"/>
    </output>

    <time>
        <begin value="0"/>
        <end value="3800"/>
        <step-length value="0.1"/>
    </time>

    <processing>
        <collision.action value="none"/>
    </processing>

    <emissions>
        <device.emissions.probability value="1"/>
    </emissions>

    <traci_server>
        <remote-port value="62092"/>
    </traci_server>

    <gui_only>
        <tracker-interval value="0.1"/>
    </gui_only>

</configuration>
-->

<tripinfos xmlns:xsi="http://www.w3.org/2001/XMLSchema-instance" xsi:noNamespaceSchemaLocation="http://sumo.dlr.de/xsd/tripinfo_file.xsd">
    <tripinfo id="W_S.0" depart="0.00" departLane="a4i_0" departPos="4.90" departSpeed="0.00" departDelay="0.00" arrival="24.20" arrivalLane="a2o_1" arrivalPos="181.00" arrivalSpeed="19.90" duration="24.20" routeLength="395.22" waitingTime="0.00" waitingCount="0" stopTime="0.00" timeLoss="4.19" rerouteNo="0" devices="tripinfo_W_S.0 emissions_W_S.0" vType="car" speedFactor="1.06" vaporized="">
        <emissions CO_abs="1788.913336" CO2_abs="121695.419440" HC_abs="11.040939" PMx_abs="2.443938" NOx_abs="50.452049" fuel_abs="52.311253" electricity_abs="0"/>
    </tripinfo>
    <tripinfo id="W_S.1" depart="2.90" departLane="a4i_0" departPos="4.90" departSpeed="0.00" departDelay="0.70" arrival="27.70" arrivalLane="a2o_1" arrivalPos="181.00" arrivalSpeed="19.13" duration="24.80" routeLength="395.22" waitingTime="0.00" waitingCount="0" stopTime="0.00" timeLoss="4.26" rerouteNo="0" devices="tripinfo_W_S.1 emissions_W_S.1" vType="car" speedFactor="1.01" vaporized="">
        <emissions CO_abs="1775.683589" CO2_abs="119370.334593" HC_abs="10.944361" PMx_abs="2.397203" NOx_abs="49.667558" fuel_abs="51.311809" electricity_abs="0"/>
    </tripinfo>
    <tripinfo id="E_S.0" depart="6.80" departLane="a2i_0" departPos="4.90" departSpeed="0.00" departDelay="0.00" arrival="31.20" arrivalLane="a4o_1" arrivalPos="176.18" arrivalSpeed="19.83" duration="24.40" routeLength="395.22" waitingTime="0.00" waitingCount="0" stopTime="0.00" timeLoss="4.25" rerouteNo="0" devices="tripinfo_E_S.0 emissions_E_S.0" vType="car" speedFactor="1.05" vaporized="">
        <emissions CO_abs="1798.867629" CO2_abs="120388.802234" HC_abs="11.066064" PMx_abs="2.431515" NOx_abs="50.092265" fuel_abs="51.749594" electricity_abs="0"/>
    </tripinfo>
    <tripinfo id="W_S.2" depart="6.60" departLane="a4i_0" departPos="4.90" departSpeed="0.00" departDelay="0.00" arrival="34.90" arrivalLane="a2o_1" arrivalPos="181.00" arrivalSpeed="15.72" duration="28.30" routeLength="395.22" waitingTime="0.00" waitingCount="0" stopTime="0.00" timeLoss="3.49" rerouteNo="0" devices="tripinfo_W_S.2 emissions_W_S.2" vType="car" speedFactor="0.83" vaporized="">
        <emissions CO_abs="1426.404615" CO2_abs="103184.699700" HC_abs="8.900585" PMx_abs="1.889910" NOx_abs="41.978097" fuel_abs="44.354507" electricity_abs="0"/>
    </tripinfo>
    <tripinfo id="E_S.1" depart="11.00" departLane="a2i_0" departPos="4.90" departSpeed="0.00" departDelay="0.00" arrival="35.30" arrivalLane="a4o_1" arrivalPos="176.18" arrivalSpeed="19.94" duration="24.30" routeLength="395.22" waitingTime="0.00" waitingCount="0" stopTime="0.00" timeLoss="4.36" rerouteNo="0" devices="tripinfo_E_S.1 emissions_E_S.1" vType="car" speedFactor="1.09" vaporized="">
        <emissions CO_abs="1740.922193" CO2_abs="120529.538437" HC_abs="10.793690" PMx_abs="2.388564" NOx_abs="49.642449" fuel_abs="51.810129" electricity_abs="0"/>
    </tripinfo>
    <tripinfo id="N_R.0" depart="8.60" departLane="a3i_0" departPos="4.90" departSpeed="0.00" departDelay="0.00" arrival="35.60" arrivalLane="a4o_0" arrivalPos="176.18" arrivalSpeed="17.74" duration="27.00" routeLength="365.95" waitingTime="0.00" waitingCount="0" stopTime="0.00" timeLoss="5.78" rerouteNo="0" devices="tripinfo_N_R.0 emissions_N_R.0" vType="car" speedFactor="0.94" vaporized="">
        <emissions CO_abs="2220.668642" CO2_abs="138209.802313" HC_abs="13.381410" PMx_abs="2.807951" NOx_abs="58.429190" fuel_abs="59.410040" electricity_abs="0"/>
    </tripinfo>
    <tripinfo id="E_S.2" depart="13.90" departLane="a2i_0" departPos="4.90" departSpeed="0.00" departDelay="0.00" arrival="38.40" arrivalLane="a4o_1" arrivalPos="176.18" arrivalSpeed="19.41" duration="24.50" routeLength="395.22" waitingTime="0.00" waitingCount="0" stopTime="0.00" timeLoss="4.21" rerouteNo="0" devices="tripinfo_E_S.2 emissions_E_S.2" vType="car" speedFactor="1.03" vaporized="">
        <emissions CO_abs="1791.573946" CO2_abs="121034.565166" HC_abs="11.042503" PMx_abs="2.434324" NOx_abs="50.314111" fuel_abs="52.027176" electricity_abs="0"/>
    </tripinfo>
    <tripinfo id="W_S.3" depart="14.60" departLane="a4i_0" departPos="4.90" departSpeed="0.00" departDelay="0.00" arrival="39.00" arrivalLane="a2o_1" arrivalPos="181.00" arrivalSpeed="19.81" duration="24.40" routeLength="395.22" waitingTime="0.00" waitingCount="0" stopTime="0.00" timeLoss="4.33" rerouteNo="0" devices="tripinfo_W_S.3 emissions_W_S.3" vType="car" speedFactor="1.05" vaporized="">
        <emissions CO_abs="1785.267710" CO2_abs="123938.052597" HC_abs="11.078842" PMx_abs="2.460433" NOx_abs="51.102109" fuel_abs="53.275280" electricity_abs="0"/>
    </tripinfo>
    <tripinfo id="S_R.0" depart="15.20" departLane="a1i_0" departPos="4.90" departSpeed="0.00" departDelay="0.00" arrival="41.20" arrivalLane="a2o_0" arrivalPos="181.00" arrivalSpeed="19.89" duration="26.00" routeLength="371.93" waitingTime="0.00" waitingCount="0" stopTime="0.00" timeLoss="6.69" rerouteNo="0" devices="tripinfo_S_R.0 emissions_S_R.0" vType="car" speedFactor="1.12" vaporized="">
        <emissions CO_abs="2730.499788" CO2_abs="167115.366583" HC_abs="16.478517" PMx_abs="3.545966" NOx_abs="71.643510" fuel_abs="71.835032" electricity_abs="0"/>
    </tripinfo>
    <tripinfo id="W_R.0" depart="16.90" departLane="a4i_0" departPos="4.90" departSpeed="0.00" departDelay="1.60" arrival="43.50" arrivalLane="a1o_0" arrivalPos="174.27" arrivalSpeed="18.73" duration="26.60" routeLength="355.03" waitingTime="0.00" waitingCount="0" stopTime="0.00" timeLoss="7.12" rerouteNo="0" devices="tripinfo_W_R.0 emissions_W_R.0" vType="car" speedFactor="0.99" vaporized="">
        <emissions CO_abs="2446.975157" CO2_abs="147270.920854" HC_abs="14.658979" PMx_abs="3.055419" NOx_abs="62.743339" fuel_abs="63.304967" electricity_abs="0"/>
    </tripinfo>
    <tripinfo id="E_S.3" depart="18.20" departLane="a2i_0" departPos="4.90" departSpeed="0.00" departDelay="0.00" arrival="44.30" arrivalLane="a4o_1" arrivalPos="176.18" arrivalSpeed="17.82" duration="26.10" routeLength="395.22" waitingTime="0.00" waitingCount="0" stopTime="0.00" timeLoss="4.14" rerouteNo="0" devices="tripinfo_E_S.3 emissions_E_S.3" vType="car" speedFactor="0.94" vaporized="">
        <emissions CO_abs="1636.437793" CO2_abs="113216.224529" HC_abs="10.109478" PMx_abs="2.195450" NOx_abs="46.639574" fuel_abs="48.666508" electricity_abs="0"/>
    </tripinfo>
    <tripinfo id="E_S.4" depart="20.50" departLane="a2i_0" departPos="4.90" departSpeed="0.00" departDelay="0.20" arrival="46.50" arrivalLane="a4o_1" arrivalPos="176.18" arrivalSpeed="17.68" duration="26.00" routeLength="395.22" waitingTime="0.00" waitingCount="0" stopTime="0.00" timeLoss="3.97" rerouteNo="0" devices="tripinfo_E_S.4 emissions_E_S.4" vType="car" speedFactor="0.94" vaporized="">
        <emissions CO_abs="1613.126873" CO2_abs="112823.790561" HC_abs="9.987109" PMx_abs="2.180592" NOx_abs="46.415545" fuel_abs="48.497815" electricity_abs="0"/>
    </tripinfo>
    <tripinfo id="E_S.5" depart="22.80" departLane="a2i_0" departPos="4.90" departSpeed="0.00" departDelay="0.50" arrival="47.70" arrivalLane="a4o_1" arrivalPos="176.18" arrivalSpeed="19.99" duration="24.90" routeLength="395.22" waitingTime="0.00" waitingCount="0" stopTime="0.00" timeLoss="5.05" rerouteNo="0" devices="tripinfo_E_S.5 emissions_E_S.5" vType="car" speedFactor="1.16" vaporized="">
        <emissions CO_abs="1798.656967" CO2_abs="118752.435084" HC_abs="11.018986" PMx_abs="2.399680" NOx_abs="49.544614" fuel_abs="51.046200" electricity_abs="0"/>
    </tripinfo>
    <tripinfo id="W_S.4" depart="23.90" departLane="a4i_0" departPos="4.90" departSpeed="0.00" departDelay="0.00" arrival="48.70" arrivalLane="a2o_1" arrivalPos="181.00" arrivalSpeed="19.08" duration="24.80" routeLength="395.22" waitingTime="0.00" waitingCount="0" stopTime="0.00" timeLoss="4.22" rerouteNo="0" devices="tripinfo_W_S.4 emissions_W_S.4" vType="car" speedFactor="1.01" vaporized="">
        <emissions CO_abs="1774.137506" CO2_abs="120184.675349" HC_abs="10.924703" PMx_abs="2.405937" NOx_abs="49.911747" fuel_abs="51.661855" electricity_abs="0"/>
    </tripinfo>
    <tripinfo id="N_R.1" depart="22.80" departLane="a3i_0" departPos="4.90" departSpeed="0.00" departDelay="0.00" arrival="49.00" arrivalLane="a4o_0" arrivalPos="176.18" arrivalSpeed="19.32" duration="26.20" routeLength="365.95" waitingTime="0.00" waitingCount="0" stopTime="0.00" timeLoss="6.52" rerouteNo="0" devices="tripinfo_N_R.1 emissions_N_R.1" vType="car" speedFactor="1.02" vaporized="">
        <emissions CO_abs="2468.895385" CO2_abs="150159.433828" HC_abs="14.852507" PMx_abs="3.141406" NOx_abs="64.113902" fuel_abs="64.546550" electricity_abs="0"/>
    </tripinfo>
    <tripinfo id="W_S.5" depart="26.20" departLane="a4i_0" departPos="4.90" departSpeed="0.00" departDelay="1.10" arrival="51.60" arrivalLane="a2o_1" arrivalPos="181.00" arrivalSpeed="18.49" duration="25.40" routeLength="395.22" waitingTime="0.00" waitingCount="0" stopTime="0.00" timeLoss="4.24" rerouteNo="0" devices="tripinfo_W_S.5 emissions_W_S.5" vType="car" speedFactor="0.98" vaporized="">
        <emissions CO_abs="1720.810037" CO2_abs="116034.755652" HC_abs="10.606252" PMx_abs="2.305999" NOx_abs="48.178435" fuel_abs="49.878024" electricity_abs="0"/>
    </tripinfo>
    <tripinfo id="E_S.6" depart="27.70" departLane="a2i_0" departPos="4.90" departSpeed="0.00" departDelay="0.00" arrival="54.20" arrivalLane="a4o_1" arrivalPos="176.18" arrivalSpeed="17.36" duration="26.50" routeLength="395.22" waitingTime="0.00" waitingCount="0" stopTime="0.00" timeLoss="3.97" rerouteNo="0" devices="tripinfo_E_S.6 emissions_E_S.6" vType="car" speedFactor="0.92" vaporized="">
        <emissions CO_abs="1579.135416" CO2_abs="110905.245401" HC_abs="9.779825" PMx_abs="2.118740" NOx_abs="45.493967" fuel_abs="47.673148" electricity_abs="0"/>
    </tripinfo>
    <tripinfo id="E_S.7" depart="30.70" departLane="a2i_0" departPos="4.90" departSpeed="0.00" departDelay="2.70" arrival="55.40" arrivalLane="a4o_1" arrivalPos="176.18" arrivalSpeed="19.99" duration="24.70" routeLength="395.22" waitingTime="0.00" waitingCount="0" stopTime="0.00" timeLoss="4.82" rerouteNo="0" devices="tripinfo_E_S.7 emissions_E_S.7" vType="car" speedFactor="1.13" vaporized="">
        <emissions CO_abs="1862.769389" CO2_abs="122033.156317" HC_abs="11.390815" PMx_abs="2.486124" NOx_abs="51.047798" fuel_abs="52.456412" electricity_abs="0"/>
    </tripinfo>
    <tripinfo id="W_S.6" depart="28.50" departLane="a4i_0" departPos="4.90" departSpeed="0.00" departDelay="1.30" arrival="56.00" arrivalLane="a2o_1" arrivalPos="181.00" arrivalSpeed="16.49" duration="27.50" routeLength="395.22" waitingTime="0.00" waitingCount="0" stopTime="0.00" timeLoss="3.80" rerouteNo="0" devices="tripinfo_W_S.6 emissions_W_S.6" vType="car" speedFactor="0.87" vaporized="">
        <emissions CO_abs="1476.511874" CO2_abs="104634.345881" HC_abs="9.152695" PMx_abs="1.951366" NOx_abs="42.711250" fuel_abs="44.977623" electricity_abs="0"/>
    </tripinfo>
    <tripinfo id="W_S.7" depart="32.50" departLane="a4i_0" departPos="4.90" departSpeed="0.00" departDelay="0.00" arrival="57.20" arrivalLane="a2o_1" arrivalPos="181.00" arrivalSpeed="19.94" duration="24.70" routeLength="395.22" waitingTime="0.00" waitingCount="0" stopTime="0.00" timeLoss="4.87" rerouteNo="0" devices="tripinfo_W_S.7 emissions_W_S.7" vType="car" speedFactor="1.15" vaporized="">
        <emissions CO_abs="1850.183414" CO2_abs="120802.883666" HC_abs="11.310693" PMx_abs="2.469821" NOx_abs="50.644359" fuel_abs="51.927562" electricity_abs="0"/>
    </tripinfo>
    <tripinfo id="S_R.1" depart="31.70" departLane="a1i_0" departPos="4.90" departSpeed="0.00" departDelay="0.70" arrival="58.40" arrivalLane="a2o_0" arrivalPos="181.00" arrivalSpeed="19.95" duration="26.70" routeLength="371.93" waitingTime="0.00" waitingCount="0" stopTime="0.00" timeLoss="7.48" rerouteNo="0" devices="tripinfo_S_R.1 emissions_S_R.1" vType="car" speedFactor="1.18" vaporized="">
        <emissions CO_abs="2943.797902" CO2_abs="175517.968854" HC_abs="17.650096" PMx_abs="3.769075" NOx_abs="75.833287" fuel_abs="75.446880" electricity_abs="0"/>
    </tripinfo>
    <tripinfo id="E_R.0" depart="33.70" departLane="a2i_0" departPos="4.90" departSpeed="0.00" departDelay="0.00" arrival="60.20" arrivalLane="a3o_0" arrivalPos="178.50" arrivalSpeed="19.00" duration="26.50" routeLength="363.97" waitingTime="0.00" waitingCount="0" stopTime="0.00" timeLoss="6.88" rerouteNo="0" devices="tripinfo_E_R.0 emissions_E_R.0" vType="car" speedFactor="1.01" vaporized="">
        <emissions CO_abs="2468.619814" CO2_abs="150028.407561" HC_abs="14.838790" PMx_abs="3.121220" NOx_abs="63.915006" fuel_abs="64.490258" electricity_abs="0"/>
    </tripinfo>
    <tripinfo id="E_R.1" depart="38.30" departLane="a2i_0" departPos="4.90" departSpeed="0.00" departDelay="1.10" arrival="64.80" arrivalLane="a3o_0" arrivalPos="178.50" arrivalSpeed="19.30" duration="26.50" routeLength="363.97" waitingTime="0.00" waitingCount="0" stopTime="0.00" timeLoss="7.06" rerouteNo="0" devices="tripinfo_E_R.1 emissions_E_R.1" vType="car" speedFactor="1.02" vaporized="">
        <emissions CO_abs="2559.950815" CO2_abs="156087.698436" HC_abs="15.408612" PMx_abs="3.260584" NOx_abs="66.608359" fuel_abs="67.094837" electricity_abs="0"/>
    </tripinfo>
    <tripinfo id="E_L.0" depart="30.10" departLane="a2i_0" departPos="4.90" departSpeed="0.00" departDelay="2.20" arrival="65.40" arrivalLane="a1o_2" arrivalPos="174.27" arrivalSpeed="17.92" duration="35.30" routeLength="393.74" waitingTime="2.60" waitingCount="1" stopTime="0.00" timeLoss="13.33" rerouteNo="0" devices="tripinfo_E_L.0 emissions_E_L.0" vType="car" speedFactor="0.95" vaporized="">
        <emissions CO_abs="3268.554512" CO2_abs="169612.562041" HC_abs="18.919357" PMx_abs="3.527926" NOx_abs="72.576986" fuel_abs="72.908952" electricity_abs="0"/>
    </tripinfo>
    <tripinfo id="W_L.0" depart="2.30" departLane="a4i_0" departPos="4.90" departSpeed="0.00" departDelay="1.10" arrival="65.80" arrivalLane="a3o_2" arrivalPos="178.50" arrivalSpeed="17.80" duration="63.50" routeLength="392.39" waitingTime="30.60" waitingCount="1" stopTime="0.00" timeLoss="40.95" rerouteNo="0" devices="tripinfo_W_L.0 emissions_W_L.0" vType="car" speedFactor="0.94" vaporized="">
        <emissions CO_abs="7861.716008" CO2_abs="243021.699175" HC_abs="41.539606" PMx_abs="5.340002" NOx_abs="105.980716" fuel_abs="104.466569" electricity_abs="0"/>
    </tripinfo>
    <tripinfo id="N_R.2" depart="47.20" departLane="a3i_0" departPos="4.90" departSpeed="0.00" departDelay="0.00" arrival="73.40" arrivalLane="a4o_0" arrivalPos="176.18" arrivalSpeed="19.62" duration="26.20" routeLength="365.95" waitingTime="0.00" waitingCount="0" stopTime="0.00" timeLoss="6.79" rerouteNo="0" devices="tripinfo_N_R.2 emissions_N_R.2" vType="car" speedFactor="1.04" vaporized="">
        <emissions CO_abs="2673.734025" CO2_abs="162887.098673" HC_abs="16.088872" PMx_abs="3.432050" NOx_abs="69.720409" fuel_abs="70.017537" electricity_abs="0"/>
    </tripinfo>
    <tripinfo id="W_L.1" depart="49.00" departLane="a4i_0" departPos="4.90" departSpeed="0.00" departDelay="1.10" arrival="76.20" arrivalLane="a3o_2" arrivalPos="178.50" arrivalSpeed="19.78" duration="27.20" routeLength="392.39" waitingTime="0.00" waitingCount="0" stopTime="0.00" timeLoss="6.57" rerouteNo="0" devices="tripinfo_W_L.1 emissions_W_L.1" vType="car" speedFactor="1.04" vaporized="">
        <emissions CO_abs="2511.929838" CO2_abs="155803.972991" HC_abs="15.193034" PMx_abs="3.250211" NOx_abs="66.316435" fuel_abs="66.972863" electricity_abs="0"/>
    </tripinfo>
    <tripinfo id="E_L.1" depart="50.20" departLane="a2i_0" departPos="4.90" departSpeed="0.00" departDelay="0.00" arrival="79.00" arrivalLane="a1o_2" arrivalPos="174.27" arrivalSpeed="17.10" duration="28.80" routeLength="393.74" waitingTime="0.00" waitingCount="0" stopTime="0.00" timeLoss="5.60" rerouteNo="0" devices="tripinfo_E_L.1 emissions_E_L.1" vType="car" speedFactor="0.90" vaporized="">
        <emissions CO_abs="2088.132840" CO2_abs="133097.403755" HC_abs="12.657646" PMx_abs="2.658002" NOx_abs="55.951970" fuel_abs="57.212486" electricity_abs="0"/>
    </tripinfo>
    <tripinfo id="N_R.3" depart="51.90" departLane="a3i_0" departPos="4.90" departSpeed="0.00" departDelay="0.00" arrival="80.20" arrivalLane="a4o_0" arrivalPos="176.18" arrivalSpeed="16.63" duration="28.30" routeLength="365.95" waitingTime="0.00" waitingCount="0" stopTime="0.00" timeLoss="5.61" rerouteNo="0" devices="tripinfo_N_R.3 emissions_N_R.3" vType="car" speedFactor="0.88" vaporized="">
        <emissions CO_abs="2215.024982" CO2_abs="136208.327849" HC_abs="13.320441" PMx_abs="2.751394" NOx_abs="57.681981" fuel_abs="58.549728" electricity_abs="0"/>
    </tripinfo>
    <tripinfo id="N_R.4" depart="56.90" departLane="a3i_0" departPos="4.90" departSpeed="0.00" departDelay="2.30" arrival="83.10" arrivalLane="a4o_0" arrivalPos="176.18" arrivalSpeed="19.93" duration="26.20" routeLength="365.95" waitingTime="0.00" waitingCount="0" stopTime="0.00" timeLoss="6.93" rerouteNo="0" devices="tripinfo_N_R.4 emissions_N_R.4" vType="car" speedFactor="1.10" vaporized="">
        <emissions CO_abs="2726.950078" CO2_abs="165867.253841" HC_abs="16.409467" PMx_abs="3.502560" NOx_abs="71.026187" fuel_abs="71.298561" electricity_abs="0"/>
    </tripinfo>
    <tripinfo id="S_R.2" depart="61.00" departLane="a1i_0" departPos="4.90" departSpeed="0.00" departDelay="0.00" arrival="87.60" arrivalLane="a2o_0" arrivalPos="181.00" arrivalSpeed="19.98" duration="26.60" routeLength="371.93" waitingTime="0.00" waitingCount="0" stopTime="0.00" timeLoss="7.25" rerouteNo="0" devices="tripinfo_S_R.2 emissions_S_R.2" vType="car" speedFactor="1.14" vaporized="">
        <emissions CO_abs="2904.592529" CO2_abs="176723.600723" HC_abs="17.492548" PMx_abs="3.759379" NOx_abs="75.947010" fuel_abs="75.965145" electricity_abs="0"/>
    </tripinfo>
    <tripinfo id="N_R.5" depart="70.30" departLane="a3i_0" departPos="4.90" departSpeed="0.00" departDelay="0.00" arrival="96.60" arrivalLane="a4o_0" arrivalPos="176.18" arrivalSpeed="19.66" duration="26.30" routeLength="365.95" waitingTime="0.00" waitingCount="0" stopTime="0.00" timeLoss="6.89" rerouteNo="0" devices="tripinfo_N_R.5 emissions_N_R.5" vType="car" speedFactor="1.04" vaporized="">
        <emissions CO_abs="2756.202420" CO2_abs="166349.471307" HC_abs="16.562348" PMx_abs="3.528519" NOx_abs="71.435963" fuel_abs="71.505828" electricity_abs="0"/>
    </tripinfo>
    <tripinfo id="N_S.1" depart="40.30" departLane="a3i_0" departPos="4.90" departSpeed="0.00" departDelay="0.00" arrival="100.30" arrivalLane="a1o_2" arrivalPos="174.27" arrivalSpeed="19.97" duration="60.00" routeLength="393.21" waitingTime="29.60" waitingCount="1" stopTime="0.00" timeLoss="40.14" rerouteNo="0" devices="tripinfo_N_S.1 emissions_N_S.1" vType="car" speedFactor="1.10" vaporized="">
        <emissions CO_abs="7843.534215" CO2_abs="249373.230991" HC_abs="41.679507" PMx_abs="5.578616" NOx_abs="109.224867" fuel_abs="107.196554" electricity_abs="0"/>
    </tripinfo>
    <tripinfo id="N_S.0" depart="25.80" departLane="a3i_0" departPos="4.90" departSpeed="0.00" departDelay="0.00" arrival="101.60" arrivalLane="a1o_1" arrivalPos="174.27" arrivalSpeed="16.88" duration="75.80" routeLength="393.21" waitingTime="43.80" waitingCount="1" stopTime="0.00" timeLoss="52.68" rerouteNo="0" devices="tripinfo_N_S.0 emissions_N_S.0" vType="car" speedFactor="0.89" vaporized="">
        <emissions CO_abs="9595.582578" CO2_abs="254755.143091" HC_abs="49.697931" PMx_abs="5.698538" NOx_abs="111.809573" fuel_abs="109.511368" electricity_abs="0"/>
    </tripinfo>
    <tripinfo id="N_S.2" depart="54.60" departLane="a3i_0" departPos="4.90" departSpeed="0.00" departDelay="0.00" arrival="101.60" arrivalLane="a1o_2" arrivalPos="174.27" arrivalSpeed="19.25" duration="47.00" routeLength="393.21" waitingTime="12.80" waitingCount="1" stopTime="0.00" timeLoss="26.58" rerouteNo="0" devices="tripinfo_N_S.2 emissions_N_S.2" vType="car" speedFactor="1.02" vaporized="">
        <emissions CO_abs="3875.074593" CO2_abs="181398.879833" HC_abs="21.980293" PMx_abs="3.855295" NOx_abs="77.963505" fuel_abs="77.975591" electricity_abs="0"/>
    </tripinfo>
    <tripinfo id="S_S.1" depart="6.90" departLane="a1i_0" departPos="4.90" departSpeed="0.00" departDelay="0.00" arrival="102.20" arrivalLane="a3o_2" arrivalPos="178.50" arrivalSpeed="16.82" duration="95.30" routeLength="396.73" waitingTime="62.80" waitingCount="1" stopTime="0.00" timeLoss="71.88" rerouteNo="0" devices="tripinfo_S_S.1 emissions_S_S.1" vType="car" speedFactor="0.89" vaporized="">
        <emissions CO_abs="12815.734110" CO2_abs="311019.845211" HC_abs="65.670157" PMx_abs="7.074571" NOx_abs="137.374637" fuel_abs="133.698576" electricity_abs="0"/>
    </tripinfo>
    <tripinfo id="S_S.0" depart="3.00" departLane="a1i_0" departPos="4.90" departSpeed="0.00" departDelay="0.00" arrival="102.40" arrivalLane="a3o_1" arrivalPos="178.50" arrivalSpeed="17.21" duration="99.40" routeLength="396.73" waitingTime="67.40" waitingCount="1" stopTime="0.00" timeLoss="79.27" rerouteNo="0" devices="tripinfo_S_S.0 emissions_S_S.0" vType="car" speedFactor="1.08" vaporized="">
        <emissions CO_abs="13886.478397" CO2_abs="339846.212379" HC_abs="71.250405" PMx_abs="7.808825" NOx_abs="150.614465" fuel_abs="146.089991" electricity_abs="0"/>
    </tripinfo>
    <tripinfo id="N_S.3" depart="62.70" departLane="a3i_0" departPos="4.90" departSpeed="0.00" departDelay="0.00" arrival="102.60" arrivalLane="a1o_2" arrivalPos="174.27" arrivalSpeed="19.91" duration="39.90" routeLength="393.21" waitingTime="5.30" waitingCount="1" stopTime="0.00" timeLoss="20.05" rerouteNo="0" devices="tripinfo_N_S.3 emissions_N_S.3" vType="car" speedFactor="1.08" vaporized="">
        <emissions CO_abs="3121.958344" CO2_abs="174210.523660" HC_abs="18.404374" PMx_abs="3.648680" NOx_abs="74.519441" fuel_abs="74.885198" electricity_abs="0"/>
    </tripinfo>
    <tripinfo id="N_S.4" depart="65.00" departLane="a3i_0" departPos="4.90" departSpeed="0.00" departDelay="2.20" arrival="102.70" arrivalLane="a1o_1" arrivalPos="174.27" arrivalSpeed="19.09" duration="37.70" routeLength="393.21" waitingTime="2.40" waitingCount="1" stopTime="0.00" timeLoss="17.89" rerouteNo="0" devices="tripinfo_N_S.4 emissions_N_S.4" vType="car" speedFactor="1.12" vaporized="">
        <emissions CO_abs="2983.909560" CO2_abs="170787.928092" HC_abs="17.675715" PMx_abs="3.541370" NOx_abs="72.987132" fuel_abs="73.413950" electricity_abs="0"/>
    </tripinfo>
    <tripinfo id="S_S.3" depart="17.50" departLane="a1i_0" departPos="4.90" departSpeed="0.00" departDelay="1.10" arrival="103.50" arrivalLane="a3o_1" arrivalPos="178.50" arrivalSpeed="17.50" duration="86.00" routeLength="396.73" waitingTime="46.10" waitingCount="1" stopTime="0.00" timeLoss="63.58" rerouteNo="0" devices="tripinfo_S_S.3 emissions_S_S.3" vType="car" speedFactor="0.93" vaporized="">
        <emissions CO_abs="9385.563857" CO2_abs="264781.773679" HC_abs="49.004962" PMx_abs="5.888724" NOx_abs="116.048133" fuel_abs="113.821053" electricity_abs="0"/>
    </tripinfo>
    <tripinfo id="S_S.2" depart="9.20" departLane="a1i_0" departPos="4.90" departSpeed="0.00" departDelay="0.30" arrival="103.60" arrivalLane="a3o_2" arrivalPos="178.50" arrivalSpeed="16.17" duration="94.40" routeLength="396.73" waitingTime="58.20" waitingCount="1" stopTime="0.00" timeLoss="70.19" rerouteNo="0" devices="tripinfo_S_S.2 emissions_S_S.2" vType="car" speedFactor="0.86" vaporized="">
        <emissions CO_abs="10772.909619" CO2_abs="268411.875277" HC_abs="55.367708" PMx_abs="6.035480" NOx_abs="118.135060" fuel_abs="115.382482" electricity_abs="0"/>
    </tripinfo>
    <tripinfo id="N_S.5" depart="73.10" departLane="a3i_0" departPos="4.90" departSpeed="0.00" departDelay="0.00" arrival="103.80" arrivalLane="a1o_2" arrivalPos="174.27" arrivalSpeed="19.41" duration="30.70" routeLength="393.21" waitingTime="0.00" waitingCount="0" stopTime="0.00" timeLoss="10.36" rerouteNo="0" devices="tripinfo_N_S.5 emissions_N_S.5" vType="car" speedFactor="1.02" vaporized="">
        <emissions CO_abs="2716.282865" CO2_abs="162226.583903" HC_abs="16.262082" PMx_abs="3.359649" NOx_abs="69.137020" fuel_abs="69.733741" electricity_abs="0"/>
    </tripinfo>
    <tripinfo id="S_S.5" depart="29.40" departLane="a1i_0" departPos="4.90" departSpeed="0.00" departDelay="0.10" arrival="104.80" arrivalLane="a3o_2" arrivalPos="178.50" arrivalSpeed="17.69" duration="75.40" routeLength="396.73" waitingTime="39.00" waitingCount="1" stopTime="0.00" timeLoss="53.07" rerouteNo="0" devices="tripinfo_S_S.5 emissions_S_S.5" vType="car" speedFactor="0.93" vaporized="">
        <emissions CO_abs="7878.264653" CO2_abs="236121.511535" HC_abs="41.449331" PMx_abs="5.147593" NOx_abs="102.705959" fuel_abs="101.500688" electricity_abs="0"/>
    </tripinfo>
    <tripinfo id="S_S.4" depart="27.10" departLane="a1i_0" departPos="4.90" departSpeed="0.00" departDelay="0.00" arrival="105.30" arrivalLane="a3o_1" arrivalPos="178.50" arrivalSpeed="15.63" duration="78.20" routeLength="396.73" waitingTime="41.00" waitingCount="1" stopTime="0.00" timeLoss="52.99" rerouteNo="0" devices="tripinfo_S_S.4 emissions_S_S.4" vType="car" speedFactor="0.83" vaporized="">
        <emissions CO_abs="7892.080800" CO2_abs="221215.384269" HC_abs="41.111079" PMx_abs="4.794272" NOx_abs="96.093836" fuel_abs="95.093516" electricity_abs="0"/>
    </tripinfo>
    <tripinfo id="S_S.6" depart="41.40" departLane="a1i_0" departPos="4.90" departSpeed="0.00" departDelay="0.00" arrival="106.00" arrivalLane="a3o_2" arrivalPos="178.50" arrivalSpeed="17.03" duration="64.60" routeLength="396.73" waitingTime="27.70" waitingCount="1" stopTime="0.00" timeLoss="41.49" rerouteNo="0" devices="tripinfo_S_S.6 emissions_S_S.6" vType="car" speedFactor="0.90" vaporized="">
        <emissions CO_abs="5940.094096" CO2_abs="201324.093866" HC_abs="31.784618" PMx_abs="4.263049" NOx_abs="86.690172" fuel_abs="86.541981" electricity_abs="0"/>
    </tripinfo>
    <tripinfo id="S_S.7" depart="44.80" departLane="a1i_0" departPos="4.90" departSpeed="0.00" departDelay="0.00" arrival="106.40" arrivalLane="a3o_1" arrivalPos="178.50" arrivalSpeed="18.14" duration="61.60" routeLength="396.73" waitingTime="24.30" waitingCount="1" stopTime="0.00" timeLoss="39.88" rerouteNo="0" devices="tripinfo_S_S.7 emissions_S_S.7" vType="car" speedFactor="0.96" vaporized="">
        <emissions CO_abs="5668.106858" CO2_abs="207988.309718" HC_abs="30.755953" PMx_abs="4.409935" NOx_abs="89.702777" fuel_abs="89.406274" electricity_abs="0"/>
    </tripinfo>
    <tripinfo id="S_S.8" depart="47.10" departLane="a1i_0" departPos="4.90" departSpeed="0.00" departDelay="0.50" arrival="107.10" arrivalLane="a3o_2" arrivalPos="178.50" arrivalSpeed="19.35" duration="60.00" routeLength="396.73" waitingTime="22.80" waitingCount="1" stopTime="0.00" timeLoss="39.89" rerouteNo="0" devices="tripinfo_S_S.8 emissions_S_S.8" vType="car" speedFactor="1.09" vaporized="">
        <emissions CO_abs="5531.504262" CO2_abs="208513.998029" HC_abs="30.154341" PMx_abs="4.438757" NOx_abs="90.023286" fuel_abs="89.632093" electricity_abs="0"/>
    </tripinfo>
    <tripinfo id="S_S.9" depart="49.40" departLane="a1i_0" departPos="4.90" departSpeed="0.00" departDelay="1.30" arrival="107.40" arrivalLane="a3o_1" arrivalPos="178.50" arrivalSpeed="19.99" duration="58.00" routeLength="396.73" waitingTime="20.40" waitingCount="1" stopTime="0.00" timeLoss="37.96" rerouteNo="0" devices="tripinfo_S_S.9 emissions_S_S.9" vType="car" speedFactor="1.09" vaporized="">
        <emissions CO_abs="5160.220669" CO2_abs="202424.928378" HC_abs="28.319949" PMx_abs="4.292866" NOx_abs="87.341507" fuel_abs="87.014478" electricity_abs="0"/>
    </tripinfo>
    <tripinfo id="S_S.10" depart="51.70" departLane="a1i_0" departPos="4.90" departSpeed="0.00" departDelay="3.30" arrival="108.10" arrivalLane="a3o_2" arrivalPos="178.50" arrivalSpeed="18.85" duration="56.40" routeLength="396.73" waitingTime="19.00" waitingCount="1" stopTime="0.00" timeLoss="35.58" rerouteNo="0" devices="tripinfo_S_S.10 emissions_S_S.10" vType="car" speedFactor="1.00" vaporized="">
        <emissions CO_abs="4802.366965" CO2_abs="193427.724921" HC_abs="26.466306" PMx_abs="4.036894" NOx_abs="82.918382" fuel_abs="83.146937" electricity_abs="0"/>
    </tripinfo>
    <tripinfo id="S_S.11" depart="53.90" departLane="a1i_0" departPos="4.90" departSpeed="0.00" departDelay="0.10" arrival="108.80" arrivalLane="a3o_1" arrivalPos="178.50" arrivalSpeed="16.23" duration="54.90" routeLength="396.73" waitingTime="16.70" waitingCount="1" stopTime="0.00" timeLoss="30.61" rerouteNo="0" devices="tripinfo_S_S.11 emissions_S_S.11" vType="car" speedFactor="0.85" vaporized="">