<?xml version="1.0" encoding="UTF-8"?>

<!-- generated on 12/03/19 18:25:22 by Eclipse SUMO GUI Version 1.3.1
<configuration xmlns:xsi="http://www.w3.org/2001/XMLSchema-instance" xsi:noNamespaceSchemaLocation="http://sumo.dlr.de/xsd/sumoConfiguration.xsd">

    <input>
        <net-file value="../cfg9_S12W22N12E22/intersection.net.xml"/>
        <route-files value="../cfg9_S12W22N12E22/intersection.rou.xml"/>
        <additional-files value="../cfg9_S12W22N12E22/intersection.det.xml"/>
    </input>

    <output>
        <tripinfo-output value="../result/tripinfo99.xml"/>
    </output>

    <time>
        <begin value="0"/>
        <end value="3800"/>
        <step-length value="0.1"/>
    </time>

    <processing>
        <collision.action value="none"/>
    </processing>

    <emissions>
        <device.emissions.probability value="1"/>
    </emissions>

    <traci_server>
        <remote-port value="64259"/>
    </traci_server>

    <gui_only>
        <tracker-interval value="0.1"/>
    </gui_only>

</configuration>
-->

<tripinfos xmlns:xsi="http://www.w3.org/2001/XMLSchema-instance" xsi:noNamespaceSchemaLocation="http://sumo.dlr.de/xsd/tripinfo_file.xsd">
    <tripinfo id="W_L.0" depart="2.40" departLane="a4i_0" departPos="4.90" departSpeed="0.00" departDelay="1.20" arrival="32.80" arrivalLane="a3o_2" arrivalPos="178.50" arrivalSpeed="17.75" duration="30.40" routeLength="395.12" waitingTime="0.00" waitingCount="0" stopTime="0.00" timeLoss="4.72" rerouteNo="0" devices="tripinfo_W_L.0 emissions_W_L.0" vType="car" speedFactor="0.94" vaporized="">
        <emissions CO_abs="1880.971813" CO2_abs="121447.234622" HC_abs="11.431526" PMx_abs="2.342286" NOx_abs="50.571066" fuel_abs="52.204713" electricity_abs="0"/>
    </tripinfo>
    <tripinfo id="N_R.0" depart="8.60" departLane="a3i_0" departPos="4.90" departSpeed="0.00" departDelay="0.00" arrival="35.70" arrivalLane="a4o_0" arrivalPos="176.18" arrivalSpeed="19.47" duration="27.10" routeLength="365.95" waitingTime="0.00" waitingCount="0" stopTime="0.00" timeLoss="4.90" rerouteNo="0" devices="tripinfo_N_R.0 emissions_N_R.0" vType="car" speedFactor="1.03" vaporized="">
        <emissions CO_abs="2080.772050" CO2_abs="131400.890894" HC_abs="12.597024" PMx_abs="2.637065" NOx_abs="55.308373" fuel_abs="56.483233" electricity_abs="0"/>
    </tripinfo>
    <tripinfo id="N_S.0" depart="12.60" departLane="a3i_0" departPos="4.90" departSpeed="0.00" departDelay="0.00" arrival="42.20" arrivalLane="a1o_1" arrivalPos="174.27" arrivalSpeed="16.63" duration="29.60" routeLength="393.21" waitingTime="0.00" waitingCount="0" stopTime="0.00" timeLoss="2.88" rerouteNo="0" devices="tripinfo_N_S.0 emissions_N_S.0" vType="car" speedFactor="0.88" vaporized="">
        <emissions CO_abs="1339.472043" CO2_abs="97293.582417" HC_abs="8.375828" PMx_abs="1.720449" NOx_abs="39.238870" fuel_abs="41.822265" electricity_abs="0"/>
    </tripinfo>
    <tripinfo id="S_R.0" depart="15.20" departLane="a1i_0" departPos="4.90" departSpeed="0.00" departDelay="0.00" arrival="42.80" arrivalLane="a2o_0" arrivalPos="181.00" arrivalSpeed="19.28" duration="27.60" routeLength="371.93" waitingTime="0.00" waitingCount="0" stopTime="0.00" timeLoss="5.11" rerouteNo="0" devices="tripinfo_S_R.0 emissions_S_R.0" vType="car" speedFactor="1.02" vaporized="">
        <emissions CO_abs="2061.984060" CO2_abs="130858.411019" HC_abs="12.508453" PMx_abs="2.614792" NOx_abs="54.982548" fuel_abs="56.250059" electricity_abs="0"/>
    </tripinfo>
    <tripinfo id="W_R.0" depart="16.90" departLane="a4i_0" departPos="4.90" departSpeed="0.00" departDelay="1.60" arrival="44.40" arrivalLane="a1o_0" arrivalPos="174.27" arrivalSpeed="19.09" duration="27.50" routeLength="355.03" waitingTime="0.00" waitingCount="0" stopTime="0.00" timeLoss="5.57" rerouteNo="0" devices="tripinfo_W_R.0 emissions_W_R.0" vType="car" speedFactor="1.01" vaporized="">
        <emissions CO_abs="2075.956321" CO2_abs="129748.819314" HC_abs="12.528486" PMx_abs="2.570511" NOx_abs="54.454874" fuel_abs="55.773146" electricity_abs="0"/>
    </tripinfo>
    <tripinfo id="E_L.0" depart="15.80" departLane="a2i_0" departPos="4.90" departSpeed="0.00" departDelay="4.00" arrival="46.40" arrivalLane="a1o_2" arrivalPos="174.27" arrivalSpeed="17.54" duration="30.60" routeLength="396.17" waitingTime="0.00" waitingCount="0" stopTime="0.00" timeLoss="4.85" rerouteNo="0" devices="tripinfo_E_L.0 emissions_E_L.0" vType="car" speedFactor="0.93" vaporized="">
        <emissions CO_abs="1848.057747" CO2_abs="124439.023902" HC_abs="11.322075" PMx_abs="2.338679" NOx_abs="51.293007" fuel_abs="53.490784" electricity_abs="0"/>
    </tripinfo>
    <tripinfo id="N_R.1" depart="22.80" departLane="a3i_0" departPos="4.90" departSpeed="0.00" departDelay="0.00" arrival="48.80" arrivalLane="a4o_0" arrivalPos="176.18" arrivalSpeed="19.93" duration="26.00" routeLength="365.95" waitingTime="0.00" waitingCount="0" stopTime="0.00" timeLoss="5.72" rerouteNo="0" devices="tripinfo_N_R.1 emissions_N_R.1" vType="car" speedFactor="1.18" vaporized="">
        <emissions CO_abs="2303.013115" CO2_abs="145327.531748" HC_abs="13.969654" PMx_abs="2.978722" NOx_abs="61.459468" fuel_abs="62.469580" electricity_abs="0"/>
    </tripinfo>
    <tripinfo id="S_S.1" depart="6.90" departLane="a1i_0" departPos="4.90" departSpeed="0.00" departDelay="0.00" arrival="50.60" arrivalLane="a3o_1" arrivalPos="178.50" arrivalSpeed="19.92" duration="43.70" routeLength="396.73" waitingTime="12.40" waitingCount="1" stopTime="0.00" timeLoss="21.72" rerouteNo="0" devices="tripinfo_S_S.1 emissions_S_S.1" vType="car" speedFactor="1.09" vaporized="">
        <emissions CO_abs="4692.407069" CO2_abs="185951.800287" HC_abs="25.790565" PMx_abs="3.995607" NOx_abs="80.297049" fuel_abs="79.933235" electricity_abs="0"/>
    </tripinfo>
    <tripinfo id="S_S.0" depart="3.00" departLane="a1i_0" departPos="4.90" departSpeed="0.00" departDelay="0.00" arrival="52.80" arrivalLane="a3o_1" arrivalPos="178.50" arrivalSpeed="15.68" duration="49.80" routeLength="396.73" waitingTime="14.50" waitingCount="1" stopTime="0.00" timeLoss="21.43" rerouteNo="0" devices="tripinfo_S_S.0 emissions_S_S.0" vType="car" speedFactor="0.83" vaporized="">
        <emissions CO_abs="4341.217625" CO2_abs="154253.435877" HC_abs="23.356354" PMx_abs="3.109835" NOx_abs="65.457068" fuel_abs="66.308051" electricity_abs="0"/>
    </tripinfo>
    <tripinfo id="S_S.3" depart="17.50" departLane="a1i_0" departPos="4.90" departSpeed="0.00" departDelay="1.10" arrival="53.00" arrivalLane="a3o_2" arrivalPos="178.50" arrivalSpeed="16.79" duration="35.50" routeLength="396.73" waitingTime="0.00" waitingCount="0" stopTime="0.00" timeLoss="9.01" rerouteNo="0" devices="tripinfo_S_S.3 emissions_S_S.3" vType="car" speedFactor="0.89" vaporized="">
        <emissions CO_abs="2183.840355" CO2_abs="128819.182247" HC_abs="12.935222" PMx_abs="2.457258" NOx_abs="53.547108" fuel_abs="55.373770" electricity_abs="0"/>
    </tripinfo>
    <tripinfo id="N_S.1" depart="25.80" departLane="a3i_0" departPos="4.90" departSpeed="0.00" departDelay="0.00" arrival="53.10" arrivalLane="a1o_1" arrivalPos="174.27" arrivalSpeed="18.41" duration="27.30" routeLength="393.21" waitingTime="0.00" waitingCount="0" stopTime="0.00" timeLoss="3.21" rerouteNo="0" devices="tripinfo_N_S.1 emissions_N_S.1" vType="car" speedFactor="0.97" vaporized="">
        <emissions CO_abs="1461.069718" CO2_abs="103943.067586" HC_abs="9.092985" PMx_abs="1.936747" NOx_abs="42.355938" fuel_abs="44.680482" electricity_abs="0"/>
    </tripinfo>
    <tripinfo id="S_S.2" depart="9.20" departLane="a1i_0" departPos="4.90" departSpeed="0.00" departDelay="0.30" arrival="54.00" arrivalLane="a3o_1" arrivalPos="178.50" arrivalSpeed="18.38" duration="44.80" routeLength="396.73" waitingTime="7.80" waitingCount="1" stopTime="0.00" timeLoss="22.23" rerouteNo="0" devices="tripinfo_S_S.2 emissions_S_S.2" vType="car" speedFactor="1.05" vaporized="">
        <emissions CO_abs="2589.266792" CO2_abs="147106.462756" HC_abs="15.250291" PMx_abs="2.891043" NOx_abs="61.781292" fuel_abs="63.234626" electricity_abs="0"/>
    </tripinfo>
    <tripinfo id="S_S.4" depart="27.10" departLane="a1i_0" departPos="4.90" departSpeed="0.00" departDelay="0.00" arrival="55.00" arrivalLane="a3o_1" arrivalPos="178.50" arrivalSpeed="19.89" duration="27.90" routeLength="396.73" waitingTime="0.00" waitingCount="0" stopTime="0.00" timeLoss="6.11" rerouteNo="0" devices="tripinfo_S_S.4 emissions_S_S.4" vType="car" speedFactor="1.10" vaporized="">
        <emissions CO_abs="1795.739210" CO2_abs="122544.128887" HC_abs="11.061931" PMx_abs="2.382070" NOx_abs="50.862647" fuel_abs="52.676129" electricity_abs="0"/>
    </tripinfo>
    <tripinfo id="S_S.5" depart="29.40" departLane="a1i_0" departPos="4.90" departSpeed="0.00" departDelay="0.10" arrival="56.20" arrivalLane="a3o_1" arrivalPos="178.50" arrivalSpeed="19.61" duration="26.80" routeLength="396.73" waitingTime="0.00" waitingCount="0" stopTime="0.00" timeLoss="4.07" rerouteNo="0" devices="tripinfo_S_S.5 emissions_S_S.5" vType="car" speedFactor="1.04" vaporized="">
        <emissions CO_abs="1729.601331" CO2_abs="117695.852591" HC_abs="10.671518" PMx_abs="2.309497" NOx_abs="48.862562" fuel_abs="50.592064" electricity_abs="0"/>
    </tripinfo>
    <tripinfo id="S_R.1" depart="31.70" departLane="a1i_0" departPos="4.90" departSpeed="0.00" departDelay="0.70" arrival="58.40" arrivalLane="a2o_0" arrivalPos="181.00" arrivalSpeed="19.91" duration="26.70" routeLength="371.93" waitingTime="0.00" waitingCount="0" stopTime="0.00" timeLoss="5.43" rerouteNo="0" devices="tripinfo_S_R.1 emissions_S_R.1" vType="car" speedFactor="1.09" vaporized="">
        <emissions CO_abs="2185.824310" CO2_abs="137372.980948" HC_abs="13.239633" PMx_abs="2.796893" NOx_abs="58.031733" fuel_abs="59.050316" electricity_abs="0"/>
    </tripinfo>
    <tripinfo id="E_R.0" depart="36.60" departLane="a2i_0" departPos="4.90" departSpeed="0.00" departDelay="2.90" arrival="66.50" arrivalLane="a3o_0" arrivalPos="178.50" arrivalSpeed="17.01" duration="29.90" routeLength="363.97" waitingTime="0.00" waitingCount="0" stopTime="0.00" timeLoss="4.91" rerouteNo="0" devices="tripinfo_E_R.0 emissions_E_R.0" vType="car" speedFactor="0.90" vaporized="">
        <emissions CO_abs="1857.236897" CO2_abs="115284.811739" HC_abs="11.165383" PMx_abs="2.200557" NOx_abs="47.985888" fuel_abs="49.555846" electricity_abs="0"/>
    </tripinfo>
    <tripinfo id="N_S.2" depart="40.30" departLane="a3i_0" departPos="4.90" departSpeed="0.00" departDelay="0.00" arrival="67.00" arrivalLane="a1o_1" arrivalPos="174.27" arrivalSpeed="18.85" duration="26.70" routeLength="393.21" waitingTime="0.00" waitingCount="0" stopTime="0.00" timeLoss="3.18" rerouteNo="0" devices="tripinfo_N_S.2 emissions_N_S.2" vType="car" speedFactor="1.00" vaporized="">
        <emissions CO_abs="1655.770222" CO2_abs="113978.624765" HC_abs="10.223427" PMx_abs="2.208394" NOx_abs="47.081899" fuel_abs="48.994227" electricity_abs="0"/>
    </tripinfo>
    <tripinfo id="E_S.1" depart="4.30" departLane="a2i_0" departPos="4.90" departSpeed="0.00" departDelay="2.00" arrival="70.30" arrivalLane="a4o_2" arrivalPos="176.18" arrivalSpeed="19.49" duration="66.00" routeLength="395.21" waitingTime="34.20" waitingCount="1" stopTime="0.00" timeLoss="43.16" rerouteNo="0" devices="tripinfo_E_S.1 emissions_E_S.1" vType="car" speedFactor="1.03" vaporized="">
        <emissions CO_abs="8202.197391" CO2_abs="240681.857842" HC_abs="43.055629" PMx_abs="5.330183" NOx_abs="105.147813" fuel_abs="103.461058" electricity_abs="0"/>
    </tripinfo>
    <tripinfo id="W_S.1" depart="3.30" departLane="a4i_0" departPos="4.90" departSpeed="0.00" departDelay="1.10" arrival="70.40" arrivalLane="a2o_2" arrivalPos="181.00" arrivalSpeed="19.92" duration="67.10" routeLength="395.21" waitingTime="35.70" waitingCount="1" stopTime="0.00" timeLoss="45.10" rerouteNo="0" devices="tripinfo_W_S.1 emissions_W_S.1" vType="car" speedFactor="1.08" vaporized="">
        <emissions CO_abs="8540.636468" CO2_abs="249650.350619" HC_abs="44.816201" PMx_abs="5.558566" NOx_abs="109.180810" fuel_abs="107.316303" electricity_abs="0"/>
    </tripinfo>
    <tripinfo id="E_S.0" depart="2.00" departLane="a2i_0" departPos="4.90" departSpeed="0.00" departDelay="0.00" arrival="70.50" arrivalLane="a4o_1" arrivalPos="176.18" arrivalSpeed="19.13" duration="68.50" routeLength="395.21" waitingTime="36.60" waitingCount="1" stopTime="0.00" timeLoss="45.21" rerouteNo="0" devices="tripinfo_E_S.0 emissions_E_S.0" vType="car" speedFactor="1.01" vaporized="">
        <emissions CO_abs="8428.668374" CO2_abs="237915.356318" HC_abs="43.995872" PMx_abs="5.258948" NOx_abs="103.828640" fuel_abs="102.272123" electricity_abs="0"/>
    </tripinfo>
    <tripinfo id="E_R.1" depart="43.00" departLane="a2i_0" departPos="4.90" departSpeed="0.00" departDelay="5.80" arrival="70.70" arrivalLane="a3o_0" arrivalPos="178.50" arrivalSpeed="19.22" duration="27.70" routeLength="363.97" waitingTime="0.00" waitingCount="0" stopTime="0.00" timeLoss="5.52" rerouteNo="0" devices="tripinfo_E_R.1 emissions_E_R.1" vType="car" speedFactor="1.02" vaporized="">
        <emissions CO_abs="2092.814712" CO2_abs="132271.633723" HC_abs="12.665744" PMx_abs="2.621541" NOx_abs="55.472584" fuel_abs="56.857573" electricity_abs="0"/>
    </tripinfo>
    <tripinfo id="W_S.0" depart="0.00" departLane="a4i_0" departPos="4.90" departSpeed="0.00" departDelay="0.00" arrival="70.90" arrivalLane="a2o_1" arrivalPos="181.00" arrivalSpeed="19.90" duration="70.90" routeLength="395.21" waitingTime="39.20" waitingCount="1" stopTime="0.00" timeLoss="48.70" rerouteNo="0" devices="tripinfo_W_S.0 emissions_W_S.0" vType="car" speedFactor="1.06" vaporized="">
        <emissions CO_abs="9046.794701" CO2_abs="252983.434795" HC_abs="47.193264" PMx_abs="5.651191" NOx_abs="110.834088" fuel_abs="108.749384" electricity_abs="0"/>
    </tripinfo>
    <tripinfo id="E_S.4" depart="11.20" departLane="a2i_0" departPos="4.90" departSpeed="0.00" departDelay="2.30" arrival="71.40" arrivalLane="a4o_2" arrivalPos="176.18" arrivalSpeed="19.94" duration="60.20" routeLength="395.21" waitingTime="25.70" waitingCount="1" stopTime="0.00" timeLoss="38.67" rerouteNo="0" devices="tripinfo_E_S.4 emissions_E_S.4" vType="car" speedFactor="1.12" vaporized="">
        <emissions CO_abs="5766.651965" CO2_abs="204757.271415" HC_abs="31.119896" PMx_abs="4.423913" NOx_abs="88.556214" fuel_abs="88.017432" electricity_abs="0"/>
    </tripinfo>
    <tripinfo id="W_S.3" depart="14.60" departLane="a4i_0" departPos="4.90" departSpeed="0.00" departDelay="0.00" arrival="71.50" arrivalLane="a2o_2" arrivalPos="181.00" arrivalSpeed="19.99" duration="56.90" routeLength="395.21" waitingTime="22.80" waitingCount="1" stopTime="0.00" timeLoss="35.74" rerouteNo="0" devices="tripinfo_W_S.3 emissions_W_S.3" vType="car" speedFactor="1.16" vaporized="">
        <emissions CO_abs="5352.345745" CO2_abs="201365.168716" HC_abs="29.165112" PMx_abs="4.334883" NOx_abs="86.850007" fuel_abs="86.559062" electricity_abs="0"/>
    </tripinfo>
    <tripinfo id="E_S.2" depart="6.60" departLane="a2i_0" departPos="4.90" departSpeed="0.00" departDelay="1.90" arrival="71.60" arrivalLane="a4o_1" arrivalPos="176.18" arrivalSpeed="19.80" duration="65.00" routeLength="395.21" waitingTime="30.10" waitingCount="1" stopTime="0.00" timeLoss="42.48" rerouteNo="0" devices="tripinfo_E_S.2 emissions_E_S.2" vType="car" speedFactor="1.05" vaporized="">
        <emissions CO_abs="6371.507925" CO2_abs="211857.783001" HC_abs="34.032224" PMx_abs="4.571797" NOx_abs="91.576552" fuel_abs="91.070032" electricity_abs="0"/>
    </tripinfo>
    <tripinfo id="E_S.5" depart="13.50" departLane="a2i_0" departPos="4.90" departSpeed="0.00" departDelay="2.50" arrival="72.60" arrivalLane="a4o_2" arrivalPos="176.18" arrivalSpeed="18.77" duration="59.10" routeLength="395.21" waitingTime="23.20" waitingCount="1" stopTime="0.00" timeLoss="35.35" rerouteNo="0" devices="tripinfo_E_S.5 emissions_E_S.5" vType="car" speedFactor="0.99" vaporized="">
        <emissions CO_abs="5133.847703" CO2_abs="184861.082545" HC_abs="27.754387" PMx_abs="3.920072" NOx_abs="79.491131" fuel_abs="79.464860" electricity_abs="0"/>
    </tripinfo>
    <tripinfo id="W_S.5" depart="23.90" departLane="a4i_0" departPos="4.90" departSpeed="0.00" departDelay="0.00" arrival="72.60" arrivalLane="a2o_2" arrivalPos="181.00" arrivalSpeed="19.97" duration="48.70" routeLength="395.21" waitingTime="14.30" waitingCount="1" stopTime="0.00" timeLoss="27.50" rerouteNo="0" devices="tripinfo_W_S.5 emissions_W_S.5" vType="car" speedFactor="1.15" vaporized="">
        <emissions CO_abs="3927.077104" CO2_abs="179156.344804" HC_abs="22.132185" PMx_abs="3.744495" NOx_abs="76.391797" fuel_abs="77.011820" electricity_abs="0"/>
    </tripinfo>
    <tripinfo id="W_S.2" depart="6.60" departLane="a4i_0" departPos="4.90" departSpeed="0.00" departDelay="0.00" arrival="72.80" arrivalLane="a2o_1" arrivalPos="181.00" arrivalSpeed="17.78" duration="66.20" routeLength="395.21" waitingTime="29.70" waitingCount="1" stopTime="0.00" timeLoss="41.16" rerouteNo="0" devices="tripinfo_W_S.2 emissions_W_S.2" vType="car" speedFactor="0.94" vaporized="">
        <emissions CO_abs="6043.446983" CO2_abs="192859.413986" HC_abs="32.052259" PMx_abs="4.095387" NOx_abs="83.068158" fuel_abs="82.903610" electricity_abs="0"/>
    </tripinfo>
    <tripinfo id="W_S.7" depart="29.30" departLane="a4i_0" departPos="4.90" departSpeed="0.00" departDelay="2.40" arrival="73.70" arrivalLane="a2o_2" arrivalPos="181.00" arrivalSpeed="19.91" duration="44.40" routeLength="395.21" waitingTime="9.60" waitingCount="1" stopTime="0.00" timeLoss="23.44" rerouteNo="0" devices="tripinfo_W_S.7 emissions_W_S.7" vType="car" speedFactor="1.18" vaporized="">
        <emissions CO_abs="3217.582726" CO2_abs="165590.009757" HC_abs="18.620032" PMx_abs="3.449273" NOx_abs="70.652914" fuel_abs="71.179879" electricity_abs="0"/>
    </tripinfo>
    <tripinfo id="E_S.3" depart="8.90" departLane="a2i_0" departPos="4.90" departSpeed="0.00" departDelay="2.10" arrival="74.10" arrivalLane="a4o_1" arrivalPos="176.18" arrivalSpeed="16.25" duration="65.20" routeLength="395.21" waitingTime="27.20" waitingCount="1" stopTime="0.00" timeLoss="37.69" rerouteNo="0" devices="tripinfo_E_S.3 emissions_E_S.3" vType="car" speedFactor="0.86" vaporized="">
        <emissions CO_abs="5421.279906" CO2_abs="172587.584994" HC_abs="28.736626" PMx_abs="3.608140" NOx_abs="74.125462" fuel_abs="74.189533" electricity_abs="0"/>
    </tripinfo>
    <tripinfo id="E_S.7" depart="19.00" departLane="a2i_0" departPos="4.90" departSpeed="0.00" departDelay="5.10" arrival="74.10" arrivalLane="a4o_2" arrivalPos="176.18" arrivalSpeed="17.72" duration="55.10" routeLength="395.21" waitingTime="18.40" waitingCount="1" stopTime="0.00" timeLoss="29.88" rerouteNo="0" devices="tripinfo_E_S.7 emissions_E_S.7" vType="car" speedFactor="0.94" vaporized="">
        <emissions CO_abs="4277.477241" CO2_abs="166045.866210" HC_abs="23.394005" PMx_abs="3.441146" NOx_abs="70.961555" fuel_abs="71.376730" electricity_abs="0"/>
    </tripinfo>
    <tripinfo id="W_S.10" depart="36.80" departLane="a4i_0" departPos="4.90" departSpeed="0.00" departDelay="0.00" arrival="74.70" arrivalLane="a2o_2" arrivalPos="181.00" arrivalSpeed="19.91" duration="37.90" routeLength="395.21" waitingTime="2.80" waitingCount="1" stopTime="0.00" timeLoss="16.93" rerouteNo="0" devices="tripinfo_W_S.10 emissions_W_S.10" vType="car" speedFactor="1.17" vaporized="">
        <emissions CO_abs="2917.035208" CO2_abs="161473.013964" HC_abs="17.137192" PMx_abs="3.303818" NOx_abs="68.415395" fuel_abs="69.410073" electricity_abs="0"/>
    </tripinfo>
    <tripinfo id="N_R.2" depart="47.20" departLane="a3i_0" departPos="4.90" departSpeed="0.00" departDelay="0.00" arrival="74.90" arrivalLane="a4o_0" arrivalPos="176.18" arrivalSpeed="18.31" duration="27.70" routeLength="365.95" waitingTime="0.00" waitingCount="0" stopTime="0.00" timeLoss="6.45" rerouteNo="0" devices="tripinfo_N_R.2 emissions_N_R.2" vType="car" speedFactor="1.08" vaporized="">
        <emissions CO_abs="2902.531177" CO2_abs="175776.729683" HC_abs="17.451052" PMx_abs="3.719555" NOx_abs="75.728951" fuel_abs="75.558138" electricity_abs="0"/>
    </tripinfo>
    <tripinfo id="E_S.6" depart="16.70" departLane="a2i_0" departPos="4.90" departSpeed="0.00" departDelay="4.00" arrival="75.20" arrivalLane="a4o_1" arrivalPos="176.18" arrivalSpeed="17.81" duration="58.50" routeLength="395.21" waitingTime="21.00" waitingCount="1" stopTime="0.00" timeLoss="33.49" rerouteNo="0" devices="tripinfo_E_S.6 emissions_E_S.6" vType="car" speedFactor="0.94" vaporized="">
        <emissions CO_abs="4638.607715" CO2_abs="170210.003912" HC_abs="25.144467" PMx_abs="3.515462" NOx_abs="72.742433" fuel_abs="73.166963" electricity_abs="0"/>
    </tripinfo>
    <tripinfo id="W_S.4" depart="19.20" departLane="a4i_0" departPos="4.90" departSpeed="0.00" departDelay="1.50" arrival="75.20" arrivalLane="a2o_1" arrivalPos="181.00" arrivalSpeed="15.61" duration="56.00" routeLength="395.21" waitingTime="17.10" waitingCount="1" stopTime="0.00" timeLoss="27.56" rerouteNo="0" devices="tripinfo_W_S.4 emissions_W_S.4" vType="car" speedFactor="0.83" vaporized="">
        <emissions CO_abs="3755.009126" CO2_abs="145454.665968" HC_abs="20.492183" PMx_abs="2.873332" NOx_abs="61.334853" fuel_abs="62.525577" electricity_abs="0"/>
    </tripinfo>
    <tripinfo id="E_S.9" depart="23.60" departLane="a2i_0" departPos="4.90" departSpeed="0.00" departDelay="5.40" arrival="75.30" arrivalLane="a4o_2" arrivalPos="176.18" arrivalSpeed="17.43" duration="51.70" routeLength="395.21" waitingTime="14.50" waitingCount="1" stopTime="0.00" timeLoss="26.00" rerouteNo="0" devices="tripinfo_E_S.9 emissions_E_S.9" vType="car" speedFactor="0.92" vaporized="">
        <emissions CO_abs="3602.584856" CO2_abs="154783.586722" HC_abs="20.032965" PMx_abs="3.120946" NOx_abs="65.520318" fuel_abs="66.535316" electricity_abs="0"/>
    </tripinfo>
    <tripinfo id="W_S.11" depart="39.10" departLane="a4i_0" departPos="4.90" departSpeed="0.00" departDelay="0.00" arrival="75.90" arrivalLane="a2o_2" arrivalPos="181.00" arrivalSpeed="18.99" duration="36.80" routeLength="395.21" waitingTime="0.00" waitingCount="0" stopTime="0.00" timeLoss="13.41" rerouteNo="0" devices="tripinfo_W_S.11 emissions_W_S.11" vType="car" speedFactor="1.00" vaporized="">
        <emissions CO_abs="2632.222237" CO2_abs="146594.333658" HC_abs="15.469260" PMx_abs="2.942372" NOx_abs="61.779969" fuel_abs="63.014458" electricity_abs="0"/>
    </tripinfo>
    <tripinfo id="E_S.8" depart="21.30" departLane="a2i_0" departPos="4.90" departSpeed="0.00" departDelay="5.10" arrival="76.30" arrivalLane="a4o_1" arrivalPos="176.18" arrivalSpeed="18.51" duration="55.00" routeLength="395.21" waitingTime="17.40" waitingCount="1" stopTime="0.00" timeLoss="30.86" rerouteNo="0" devices="tripinfo_E_S.8 emissions_E_S.8" vType="car" speedFactor="0.98" vaporized="">
        <emissions CO_abs="4186.539798" CO2_abs="170766.274571" HC_abs="23.091962" PMx_abs="3.477466" NOx_abs="72.579525" fuel_abs="73.405765" electricity_abs="0"/>
    </tripinfo>
    <tripinfo id="W_S.6" depart="27.00" departLane="a4i_0" departPos="4.90" departSpeed="0.00" departDelay="1.90" arrival="76.40" arrivalLane="a2o_1" arrivalPos="181.00" arrivalSpeed="18.16" duration="49.40" routeLength="395.21" waitingTime="11.40" waitingCount="1" stopTime="0.00" timeLoss="26.31" rerouteNo="0" devices="tripinfo_W_S.6 emissions_W_S.6" vType="car" speedFactor="1.02" vaporized="">
        <emissions CO_abs="3240.913664" CO2_abs="154305.223422" HC_abs="18.417091" PMx_abs="3.081564" NOx_abs="65.226411" fuel_abs="66.329429" electricity_abs="0"/>
    </tripinfo>
    <tripinfo id="E_S.11" depart="29.10" departLane="a2i_0" departPos="4.90" departSpeed="0.00" departDelay="6.80" arrival="76.50" arrivalLane="a4o_2" arrivalPos="176.18" arrivalSpeed="17.66" duration="47.40" routeLength="395.21" waitingTime="10.00" waitingCount="1" stopTime="0.00" timeLoss="22.06" rerouteNo="0" devices="tripinfo_E_S.11 emissions_E_S.11" vType="car" speedFactor="0.93" vaporized="">
        <emissions CO_abs="2983.857778" CO2_abs="146949.812485" HC_abs="17.060877" PMx_abs="2.946665" NOx_abs="62.154952" fuel_abs="63.167537" electricity_abs="0"/>
    </tripinfo>
    <tripinfo id="E_S.10" depart="25.90" departLane="a2i_0" departPos="4.90" departSpeed="0.00" departDelay="5.60" arrival="77.50" arrivalLane="a4o_1" arrivalPos="176.18" arrivalSpeed="17.95" duration="51.60" routeLength="395.21" waitingTime="13.60" waitingCount="1" stopTime="0.00" timeLoss="26.74" rerouteNo="0" devices="tripinfo_E_S.10 emissions_E_S.10" vType="car" speedFactor="0.95" vaporized="">
        <emissions CO_abs="3562.059764" CO2_abs="159110.618751" HC_abs="19.970935" PMx_abs="3.187626" NOx_abs="67.301205" fuel_abs="68.395241" electricity_abs="0"/>
    </tripinfo>
    <tripinfo id="W_S.8" depart="31.60" departLane="a4i_0" departPos="4.90" departSpeed="0.00" departDelay="4.40" arrival="77.50" arrivalLane="a2o_1" arrivalPos="181.00" arrivalSpeed="17.10" duration="45.90" routeLength="395.21" waitingTime="7.10" waitingCount="1" stopTime="0.00" timeLoss="19.81" rerouteNo="0" devices="tripinfo_W_S.8 emissions_W_S.8" vType="car" speedFactor="0.90" vaporized="">
        <emissions CO_abs="2559.372052" CO2_abs="137058.589596" HC_abs="14.896766" PMx_abs="2.632793" NOx_abs="57.263498" fuel_abs="58.915701" electricity_abs="0"/>
    </tripinfo>
    <tripinfo id="E_S.13" depart="34.40" departLane="a2i_0" departPos="4.90" departSpeed="0.00" departDelay="6.40" arrival="77.60" arrivalLane="a4o_2" arrivalPos="176.18" arrivalSpeed="19.97" duration="43.20" routeLength="395.21" waitingTime="6.10" waitingCount="1" stopTime="0.00" timeLoss="21.24" rerouteNo="0" devices="tripinfo_E_S.13 emissions_E_S.13" vType="car" speedFactor="1.09" vaporized="">
        <emissions CO_abs="3104.136928" CO2_abs="166706.662311" HC_abs="18.095615" PMx_abs="3.383426" NOx_abs="70.702984" fuel_abs="71.659880" electricity_abs="0"/>
    </tripinfo>
    <tripinfo id="E_S.12" depart="31.40" departLane="a2i_0" departPos="4.90" departSpeed="0.00" departDelay="3.70" arrival="78.50" arrivalLane="a4o_1" arrivalPos="176.18" arrivalSpeed="19.51" duration="47.10" routeLength="395.21" waitingTime="9.20" waitingCount="1" stopTime="0.00" timeLoss="24.26" rerouteNo="0" devices="tripinfo_E_S.12 emissions_E_S.12" vType="car" speedFactor="1.03" vaporized="">
        <emissions CO_abs="3150.997814" CO2_abs="164483.130507" HC_abs="18.252751" PMx_abs="3.298389" NOx_abs="69.587289" fuel_abs="70.704211" electricity_abs="0"/>
    </tripinfo>
    <tripinfo id="W_S.9" depart="33.90" departLane="a4i_0" departPos="4.90" departSpeed="0.00" departDelay="1.40" arrival="78.60" arrivalLane="a2o_1" arrivalPos="181.00" arrivalSpeed="18.93" duration="44.70" routeLength="395.21" waitingTime="5.40" waitingCount="1" stopTime="0.00" timeLoss="21.14" rerouteNo="0" devices="tripinfo_W_S.9 emissions_W_S.9" vType="car" speedFactor="1.00" vaporized="">
        <emissions CO_abs="2780.924633" CO2_abs="149475.051542" HC_abs="16.173413" PMx_abs="2.918839" NOx_abs="62.691955" fuel_abs="64.252933" electricity_abs="0"/>
    </tripinfo>
    <tripinfo id="E_S.15" depart="41.00" departLane="a2i_0" departPos="4.90" departSpeed="0.00" departDelay="5.50" arrival="79.30" arrivalLane="a4o_2" arrivalPos="176.18" arrivalSpeed="16.20" duration="38.30" routeLength="395.21" waitingTime="0.00" waitingCount="0" stopTime="0.00" timeLoss="10.75" rerouteNo="0" devices="tripinfo_E_S.15 emissions_E_S.15" vType="car" speedFactor="0.85" vaporized="">
        <emissions CO_abs="2336.368387" CO2_abs="127741.536110" HC_abs="13.636457" PMx_abs="2.462025" NOx_abs="53.431871" fuel_abs="54.910633" electricity_abs="0"/>
    </tripinfo>
    <tripinfo id="E_S.14" depart="38.90" departLane="a2i_0" departPos="4.90" departSpeed="0.00" departDelay="3.70" arrival="79.90" arrivalLane="a4o_1" arrivalPos="176.18" arrivalSpeed="16.59" duration="41.00" routeLength="395.21" waitingTime="2.20" waitingCount="1" stopTime="0.00" timeLoss="14.16" rerouteNo="0" devices="tripinfo_E_S.14 emissions_E_S.14" vType="car" speedFactor="0.88" vaporized="">
        <emissions CO_abs="2460.685604" CO2_abs="132524.623563" HC_abs="14.310315" PMx_abs="2.518652" NOx_abs="55.145621" fuel_abs="56.966770" electricity_abs="0"/>
    </tripinfo>
    <tripinfo id="E_S.16" depart="45.30" departLane="a2i_0" departPos="4.90" departSpeed="0.00" departDelay="6.20" arrival="80.40" arrivalLane="a4o_2" arrivalPos="176.18" arrivalSpeed="18.61" duration="35.10" routeLength="395.21" waitingTime="0.00" waitingCount="0" stopTime="0.00" timeLoss="13.28" rerouteNo="0" devices="tripinfo_E_S.16 emissions_E_S.16" vType="car" speedFactor="1.10" vaporized="">
        <emissions CO_abs="2556.287806" CO2_abs="148704.632652" HC_abs="15.147413" PMx_abs="2.944518" NOx_abs="62.650408" fuel_abs="63.921519" electricity_abs="0"/>
    </tripinfo>
    <tripinfo id="E_S.17" depart="52.90" departLane="a2i_0" departPos="4.90" departSpeed="0.00" departDelay="0.00" arrival="81.10" arrivalLane="a4o_1" arrivalPos="176.18" arrivalSpeed="19.49" duration="28.20" routeLength="395.21" waitingTime="0.00" waitingCount="0" stopTime="0.00" timeLoss="5.54" rerouteNo="0" devices="tripinfo_E_S.17 emissions_E_S.17" vType="car" speedFactor="1.04" vaporized="">
        <emissions CO_abs="2237.176199" CO2_abs="145506.489199" HC_abs="13.649660" PMx_abs="2.952609" NOx_abs="61.471678" fuel_abs="62.546475" electricity_abs="0"/>
    </tripinfo>
    <tripinfo id="N_R.3" depart="51.90" departLane="a3i_0" departPos="4.90" departSpeed="0.00" departDelay="0.00" arrival="81.60" arrivalLane="a4o_0" arrivalPos="176.18" arrivalSpeed="17.14" duration="29.70" routeLength="365.95" waitingTime="0.00" waitingCount="0" stopTime="0.00" timeLoss="4.64" rerouteNo="0" devices="tripinfo_N_R.3 emissions_N_R.3" vType="car" speedFactor="0.91" vaporized="">