<?xml version="1.0" encoding="UTF-8"?>

<!-- generated on 11/28/19 14:41:59 by Eclipse SUMO GUI Version 1.3.1
<configuration xmlns:xsi="http://www.w3.org/2001/XMLSchema-instance" xsi:noNamespaceSchemaLocation="http://sumo.dlr.de/xsd/sumoConfiguration.xsd">

    <input>
        <net-file value="../cfg3/intersection.net.xml"/>
        <route-files value="../cfg3/intersection.rou.xml"/>
        <additional-files value="../cfg3/intersection.det.xml"/>
    </input>

    <output>
        <tripinfo-output value="../result/tripinfo33.xml"/>
    </output>

    <time>
        <begin value="0"/>
        <end value="3800"/>
        <step-length value="0.1"/>
    </time>

    <processing>
        <collision.action value="none"/>
    </processing>

    <emissions>
        <device.emissions.probability value="1"/>
    </emissions>

    <traci_server>
        <remote-port value="65329"/>
    </traci_server>

    <gui_only>
        <tracker-interval value="0.1"/>
    </gui_only>

</configuration>
-->

<tripinfos xmlns:xsi="http://www.w3.org/2001/XMLSchema-instance" xsi:noNamespaceSchemaLocation="http://sumo.dlr.de/xsd/tripinfo_file.xsd">
    <tripinfo id="E_R.0" depart="1.70" departLane="a2i_0" departPos="4.90" departSpeed="0.00" departDelay="0.00" arrival="28.20" arrivalLane="a3o_0" arrivalPos="178.50" arrivalSpeed="19.13" duration="26.50" routeLength="363.97" waitingTime="0.00" waitingCount="0" stopTime="0.00" timeLoss="6.99" rerouteNo="0" devices="tripinfo_E_R.0 emissions_E_R.0" vType="car" speedFactor="1.01" vaporized="">
        <emissions CO_abs="2461.372061" CO2_abs="150955.936100" HC_abs="14.811777" PMx_abs="3.121392" NOx_abs="64.121649" fuel_abs="64.888974" electricity_abs="0"/>
    </tripinfo>
    <tripinfo id="W_L.0" depart="2.30" departLane="a4i_0" departPos="4.90" departSpeed="0.00" departDelay="1.10" arrival="30.70" arrivalLane="a3o_2" arrivalPos="178.50" arrivalSpeed="17.81" duration="28.40" routeLength="392.39" waitingTime="0.00" waitingCount="0" stopTime="0.00" timeLoss="5.89" rerouteNo="0" devices="tripinfo_W_L.0 emissions_W_L.0" vType="car" speedFactor="0.94" vaporized="">
        <emissions CO_abs="2199.400648" CO2_abs="141088.673813" HC_abs="13.348993" PMx_abs="2.828823" NOx_abs="59.277012" fuel_abs="60.647547" electricity_abs="0"/>
    </tripinfo>
    <tripinfo id="W_R.0" depart="5.20" departLane="a4i_0" departPos="4.90" departSpeed="0.00" departDelay="2.70" arrival="31.30" arrivalLane="a1o_0" arrivalPos="174.27" arrivalSpeed="19.84" duration="26.10" routeLength="355.03" waitingTime="0.00" waitingCount="0" stopTime="0.00" timeLoss="7.29" rerouteNo="0" devices="tripinfo_W_R.0 emissions_W_R.0" vType="car" speedFactor="1.05" vaporized="">
        <emissions CO_abs="2733.687286" CO2_abs="163398.713300" HC_abs="16.388919" PMx_abs="3.467986" NOx_abs="70.208474" fuel_abs="70.237453" electricity_abs="0"/>
    </tripinfo>
    <tripinfo id="N_R.0" depart="7.50" departLane="a3i_0" departPos="4.90" departSpeed="0.00" departDelay="0.60" arrival="33.70" arrivalLane="a4o_0" arrivalPos="176.18" arrivalSpeed="18.82" duration="26.20" routeLength="365.95" waitingTime="0.00" waitingCount="0" stopTime="0.00" timeLoss="6.16" rerouteNo="0" devices="tripinfo_N_R.0 emissions_N_R.0" vType="car" speedFactor="0.99" vaporized="">
        <emissions CO_abs="2401.998178" CO2_abs="149479.689207" HC_abs="14.528780" PMx_abs="3.093822" NOx_abs="63.494865" fuel_abs="64.254375" electricity_abs="0"/>
    </tripinfo>
    <tripinfo id="N_R.1" depart="9.80" departLane="a3i_0" departPos="4.90" departSpeed="0.00" departDelay="1.20" arrival="37.40" arrivalLane="a4o_0" arrivalPos="176.18" arrivalSpeed="17.54" duration="27.60" routeLength="365.95" waitingTime="0.00" waitingCount="0" stopTime="0.00" timeLoss="6.17" rerouteNo="0" devices="tripinfo_N_R.1 emissions_N_R.1" vType="car" speedFactor="0.93" vaporized="">
        <emissions CO_abs="2152.596033" CO2_abs="133851.251270" HC_abs="12.990959" PMx_abs="2.704580" NOx_abs="56.571219" fuel_abs="57.536520" electricity_abs="0"/>
    </tripinfo>
    <tripinfo id="W_R.1" depart="9.90" departLane="a4i_0" departPos="4.90" departSpeed="0.00" departDelay="0.10" arrival="37.50" arrivalLane="a1o_0" arrivalPos="174.27" arrivalSpeed="17.74" duration="27.60" routeLength="355.03" waitingTime="0.00" waitingCount="0" stopTime="0.00" timeLoss="6.99" rerouteNo="0" devices="tripinfo_W_R.1 emissions_W_R.1" vType="car" speedFactor="0.94" vaporized="">
        <emissions CO_abs="2558.699039" CO2_abs="152881.043724" HC_abs="15.311895" PMx_abs="3.167131" NOx_abs="65.300288" fuel_abs="65.716505" electricity_abs="0"/>
    </tripinfo>
    <tripinfo id="N_S.0" depart="12.60" departLane="a3i_0" departPos="4.90" departSpeed="0.00" departDelay="0.00" arrival="39.40" arrivalLane="a1o_1" arrivalPos="174.27" arrivalSpeed="16.80" duration="26.80" routeLength="393.21" waitingTime="0.00" waitingCount="0" stopTime="0.00" timeLoss="4.05" rerouteNo="0" devices="tripinfo_N_S.0 emissions_N_S.0" vType="car" speedFactor="0.89" vaporized="">
        <emissions CO_abs="1661.163130" CO2_abs="114831.720628" HC_abs="10.237937" PMx_abs="2.213666" NOx_abs="47.388605" fuel_abs="49.360937" electricity_abs="0"/>
    </tripinfo>
    <tripinfo id="E_R.1" depart="10.90" departLane="a2i_0" departPos="4.90" departSpeed="0.00" departDelay="4.80" arrival="39.90" arrivalLane="a3o_0" arrivalPos="178.50" arrivalSpeed="16.27" duration="29.00" routeLength="363.97" waitingTime="0.00" waitingCount="0" stopTime="0.00" timeLoss="6.12" rerouteNo="0" devices="tripinfo_E_R.1 emissions_E_R.1" vType="car" speedFactor="0.86" vaporized="">
        <emissions CO_abs="2303.572743" CO2_abs="140036.873550" HC_abs="13.809673" PMx_abs="2.817761" NOx_abs="59.269185" fuel_abs="60.195479" electricity_abs="0"/>
    </tripinfo>
    <tripinfo id="S_R.0" depart="16.10" departLane="a1i_0" departPos="4.90" departSpeed="0.00" departDelay="0.90" arrival="42.20" arrivalLane="a2o_0" arrivalPos="181.00" arrivalSpeed="19.89" duration="26.10" routeLength="371.93" waitingTime="0.00" waitingCount="0" stopTime="0.00" timeLoss="6.81" rerouteNo="0" devices="tripinfo_S_R.0 emissions_S_R.0" vType="car" speedFactor="1.13" vaporized="">
        <emissions CO_abs="2792.857110" CO2_abs="171156.042008" HC_abs="16.860928" PMx_abs="3.635517" NOx_abs="73.416369" fuel_abs="73.571917" electricity_abs="0"/>
    </tripinfo>
    <tripinfo id="W_R.2" depart="14.50" departLane="a4i_0" departPos="4.90" departSpeed="0.00" departDelay="0.00" arrival="42.30" arrivalLane="a1o_0" arrivalPos="174.27" arrivalSpeed="17.35" duration="27.80" routeLength="355.03" waitingTime="0.00" waitingCount="0" stopTime="0.00" timeLoss="6.80" rerouteNo="0" devices="tripinfo_W_R.2 emissions_W_R.2" vType="car" speedFactor="0.92" vaporized="">
        <emissions CO_abs="2394.779758" CO2_abs="143071.253145" HC_abs="14.306755" PMx_abs="2.932966" NOx_abs="60.886018" fuel_abs="61.499776" electricity_abs="0"/>
    </tripinfo>
    <tripinfo id="W_R.3" depart="19.10" departLane="a4i_0" departPos="4.90" departSpeed="0.00" departDelay="3.80" arrival="46.80" arrivalLane="a1o_0" arrivalPos="174.27" arrivalSpeed="17.68" duration="27.70" routeLength="355.03" waitingTime="0.00" waitingCount="0" stopTime="0.00" timeLoss="6.96" rerouteNo="0" devices="tripinfo_W_R.3 emissions_W_R.3" vType="car" speedFactor="0.93" vaporized="">
        <emissions CO_abs="2410.627694" CO2_abs="142938.916550" HC_abs="14.393565" PMx_abs="2.945654" NOx_abs="60.963147" fuel_abs="61.442882" electricity_abs="0"/>
    </tripinfo>
    <tripinfo id="E_L.0" depart="20.10" departLane="a2i_0" departPos="4.90" departSpeed="0.00" departDelay="8.30" arrival="47.90" arrivalLane="a1o_2" arrivalPos="174.27" arrivalSpeed="18.42" duration="27.80" routeLength="393.74" waitingTime="0.00" waitingCount="0" stopTime="0.00" timeLoss="6.35" rerouteNo="0" devices="tripinfo_E_L.0 emissions_E_L.0" vType="car" speedFactor="0.98" vaporized="">
        <emissions CO_abs="2372.754897" CO2_abs="148718.489635" HC_abs="14.361170" PMx_abs="3.058427" NOx_abs="63.026805" fuel_abs="63.927185" electricity_abs="0"/>
    </tripinfo>
    <tripinfo id="N_R.2" depart="22.80" departLane="a3i_0" departPos="4.90" departSpeed="0.00" departDelay="0.00" arrival="48.70" arrivalLane="a4o_0" arrivalPos="176.18" arrivalSpeed="19.57" duration="25.90" routeLength="365.95" waitingTime="0.00" waitingCount="0" stopTime="0.00" timeLoss="6.39" rerouteNo="0" devices="tripinfo_N_R.2 emissions_N_R.2" vType="car" speedFactor="1.03" vaporized="">
        <emissions CO_abs="2477.487123" CO2_abs="152719.136448" HC_abs="14.947177" PMx_abs="3.185019" NOx_abs="65.045756" fuel_abs="65.646842" electricity_abs="0"/>
    </tripinfo>
    <tripinfo id="N_S.1" depart="25.80" departLane="a3i_0" departPos="4.90" departSpeed="0.00" departDelay="0.00" arrival="50.80" arrivalLane="a1o_2" arrivalPos="174.27" arrivalSpeed="18.91" duration="25.00" routeLength="393.21" waitingTime="0.00" waitingCount="0" stopTime="0.00" timeLoss="4.75" rerouteNo="0" devices="tripinfo_N_S.1 emissions_N_S.1" vType="car" speedFactor="1.00" vaporized="">
        <emissions CO_abs="2168.032414" CO2_abs="140915.307401" HC_abs="13.229834" PMx_abs="2.913101" NOx_abs="59.443551" fuel_abs="60.572901" electricity_abs="0"/>
    </tripinfo>
    <tripinfo id="S_S.1" depart="6.90" departLane="a1i_0" departPos="4.90" departSpeed="0.00" departDelay="0.00" arrival="52.40" arrivalLane="a3o_2" arrivalPos="178.50" arrivalSpeed="19.89" duration="45.50" routeLength="396.73" waitingTime="14.00" waitingCount="2" stopTime="0.00" timeLoss="25.66" rerouteNo="0" devices="tripinfo_S_S.1 emissions_S_S.1" vType="car" speedFactor="1.12" vaporized="">
        <emissions CO_abs="5313.006997" CO2_abs="210822.766933" HC_abs="29.254708" PMx_abs="4.593122" NOx_abs="91.394170" fuel_abs="90.624177" electricity_abs="0"/>
    </tripinfo>
    <tripinfo id="S_S.0" depart="3.00" departLane="a1i_0" departPos="4.90" departSpeed="0.00" departDelay="0.00" arrival="54.10" arrivalLane="a3o_1" arrivalPos="178.50" arrivalSpeed="16.76" duration="51.10" routeLength="396.73" waitingTime="17.80" waitingCount="2" stopTime="0.00" timeLoss="28.04" rerouteNo="0" devices="tripinfo_S_S.0 emissions_S_S.0" vType="car" speedFactor="0.89" vaporized="">
        <emissions CO_abs="5338.111751" CO2_abs="190207.259483" HC_abs="28.756589" PMx_abs="4.007098" NOx_abs="81.608739" fuel_abs="81.763062" electricity_abs="0"/>
    </tripinfo>
    <tripinfo id="N_S.2" depart="28.20" departLane="a3i_0" departPos="4.90" departSpeed="0.00" departDelay="1.80" arrival="54.50" arrivalLane="a1o_1" arrivalPos="174.27" arrivalSpeed="17.03" duration="26.30" routeLength="393.21" waitingTime="0.00" waitingCount="0" stopTime="0.00" timeLoss="3.81" rerouteNo="0" devices="tripinfo_N_S.2 emissions_N_S.2" vType="car" speedFactor="0.90" vaporized="">
        <emissions CO_abs="1416.765741" CO2_abs="103023.417578" HC_abs="8.845365" PMx_abs="1.916189" NOx_abs="41.805863" fuel_abs="44.285155" electricity_abs="0"/>
    </tripinfo>
    <tripinfo id="S_S.2" depart="9.20" departLane="a1i_0" departPos="4.90" departSpeed="0.00" departDelay="0.30" arrival="55.10" arrivalLane="a3o_2" arrivalPos="178.50" arrivalSpeed="16.65" duration="45.90" routeLength="396.73" waitingTime="8.20" waitingCount="1" stopTime="0.00" timeLoss="22.64" rerouteNo="0" devices="tripinfo_S_S.2 emissions_S_S.2" vType="car" speedFactor="0.88" vaporized="">
        <emissions CO_abs="2719.464355" CO2_abs="145831.527909" HC_abs="15.826895" PMx_abs="2.917855" NOx_abs="61.523671" fuel_abs="62.686646" electricity_abs="0"/>
    </tripinfo>
    <tripinfo id="S_S.3" depart="11.50" departLane="a1i_0" departPos="4.90" departSpeed="0.00" departDelay="1.20" arrival="55.30" arrivalLane="a3o_1" arrivalPos="178.50" arrivalSpeed="17.43" duration="43.80" routeLength="396.73" waitingTime="6.10" waitingCount="1" stopTime="0.00" timeLoss="23.90" rerouteNo="0" devices="tripinfo_S_S.3 emissions_S_S.3" vType="car" speedFactor="1.16" vaporized="">
        <emissions CO_abs="3044.627615" CO2_abs="165727.043479" HC_abs="17.828061" PMx_abs="3.452447" NOx_abs="71.034940" fuel_abs="71.238598" electricity_abs="0"/>
    </tripinfo>
    <tripinfo id="S_S.4" depart="13.80" departLane="a1i_0" departPos="4.90" departSpeed="0.00" departDelay="2.10" arrival="56.20" arrivalLane="a3o_2" arrivalPos="178.50" arrivalSpeed="19.19" duration="42.40" routeLength="396.73" waitingTime="4.50" waitingCount="1" stopTime="0.00" timeLoss="22.10" rerouteNo="0" devices="tripinfo_S_S.4 emissions_S_S.4" vType="car" speedFactor="1.01" vaporized="">
        <emissions CO_abs="3110.181040" CO2_abs="168776.683483" HC_abs="18.166063" PMx_abs="3.468644" NOx_abs="71.895362" fuel_abs="72.549591" electricity_abs="0"/>
    </tripinfo>
    <tripinfo id="S_S.5" depart="18.40" departLane="a1i_0" departPos="4.90" departSpeed="0.00" departDelay="2.00" arrival="56.40" arrivalLane="a3o_1" arrivalPos="178.50" arrivalSpeed="19.27" duration="38.00" routeLength="396.73" waitingTime="0.00" waitingCount="0" stopTime="0.00" timeLoss="18.11" rerouteNo="0" devices="tripinfo_S_S.5 emissions_S_S.5" vType="car" speedFactor="1.15" vaporized="">
        <emissions CO_abs="3140.451592" CO2_abs="170720.048376" HC_abs="18.380500" PMx_abs="3.545418" NOx_abs="73.118413" fuel_abs="73.384885" electricity_abs="0"/>
    </tripinfo>
    <tripinfo id="S_S.6" depart="23.60" departLane="a1i_0" departPos="4.90" departSpeed="0.00" departDelay="0.00" arrival="57.30" arrivalLane="a3o_2" arrivalPos="178.50" arrivalSpeed="18.12" duration="33.70" routeLength="396.73" waitingTime="0.00" waitingCount="0" stopTime="0.00" timeLoss="12.39" rerouteNo="0" devices="tripinfo_S_S.6 emissions_S_S.6" vType="car" speedFactor="0.96" vaporized="">
        <emissions CO_abs="2675.053415" CO2_abs="157842.207324" HC_abs="15.946181" PMx_abs="3.186303" NOx_abs="66.882141" fuel_abs="67.849237" electricity_abs="0"/>
    </tripinfo>
    <tripinfo id="N_S.3" depart="31.30" departLane="a3i_0" departPos="4.90" departSpeed="0.00" departDelay="3.10" arrival="57.50" arrivalLane="a1o_1" arrivalPos="174.27" arrivalSpeed="17.06" duration="26.20" routeLength="393.21" waitingTime="0.00" waitingCount="0" stopTime="0.00" timeLoss="3.70" rerouteNo="0" devices="tripinfo_N_S.3 emissions_N_S.3" vType="car" speedFactor="0.90" vaporized="">
        <emissions CO_abs="1381.041642" CO2_abs="99009.583925" HC_abs="8.569269" PMx_abs="1.849556" NOx_abs="40.254685" fuel_abs="42.559786" electricity_abs="0"/>
    </tripinfo>
    <tripinfo id="S_S.8" depart="31.30" departLane="a1i_0" departPos="4.90" departSpeed="0.00" departDelay="2.00" arrival="58.20" arrivalLane="a3o_1" arrivalPos="178.50" arrivalSpeed="18.38" duration="26.90" routeLength="396.73" waitingTime="0.00" waitingCount="0" stopTime="0.00" timeLoss="5.89" rerouteNo="0" devices="tripinfo_S_S.8 emissions_S_S.8" vType="car" speedFactor="0.97" vaporized="">
        <emissions CO_abs="3404.318699" CO2_abs="207813.352844" HC_abs="20.541804" PMx_abs="4.530909" NOx_abs="90.223081" fuel_abs="89.328965" electricity_abs="0"/>
    </tripinfo>
    <tripinfo id="S_S.7" depart="27.50" departLane="a1i_0" departPos="4.90" departSpeed="0.00" departDelay="0.40" arrival="58.70" arrivalLane="a3o_2" arrivalPos="178.50" arrivalSpeed="16.17" duration="31.20" routeLength="396.73" waitingTime="0.00" waitingCount="0" stopTime="0.00" timeLoss="7.37" rerouteNo="0" devices="tripinfo_S_S.7 emissions_S_S.7" vType="car" speedFactor="0.85" vaporized="">
        <emissions CO_abs="1896.161720" CO2_abs="127286.467889" HC_abs="11.607387" PMx_abs="2.391080" NOx_abs="52.508495" fuel_abs="54.714775" electricity_abs="0"/>
    </tripinfo>
    <tripinfo id="N_S.4" depart="33.60" departLane="a3i_0" departPos="4.90" departSpeed="0.00" departDelay="5.00" arrival="58.70" arrivalLane="a1o_1" arrivalPos="174.27" arrivalSpeed="19.85" duration="25.10" routeLength="393.21" waitingTime="0.00" waitingCount="0" stopTime="0.00" timeLoss="5.37" rerouteNo="0" devices="tripinfo_N_S.4 emissions_N_S.4" vType="car" speedFactor="1.14" vaporized="">
        <emissions CO_abs="1781.198517" CO2_abs="116228.206985" HC_abs="10.875916" PMx_abs="2.352679" NOx_abs="48.624331" fuel_abs="49.961151" electricity_abs="0"/>
    </tripinfo>
    <tripinfo id="S_R.1" depart="33.60" departLane="a1i_0" departPos="4.90" departSpeed="0.00" departDelay="2.60" arrival="59.80" arrivalLane="a2o_0" arrivalPos="181.00" arrivalSpeed="19.27" duration="26.20" routeLength="371.93" waitingTime="0.00" waitingCount="0" stopTime="0.00" timeLoss="6.34" rerouteNo="0" devices="tripinfo_S_R.1 emissions_S_R.1" vType="car" speedFactor="1.02" vaporized="">
        <emissions CO_abs="2538.683924" CO2_abs="158538.922740" HC_abs="15.372321" PMx_abs="3.299998" NOx_abs="67.408380" fuel_abs="68.148488" electricity_abs="0"/>
    </tripinfo>
    <tripinfo id="N_S.5" depart="35.90" departLane="a3i_0" departPos="4.90" departSpeed="0.00" departDelay="7.20" arrival="60.10" arrivalLane="a1o_1" arrivalPos="174.27" arrivalSpeed="19.41" duration="24.20" routeLength="393.21" waitingTime="0.00" waitingCount="0" stopTime="0.00" timeLoss="4.24" rerouteNo="0" devices="tripinfo_N_S.5 emissions_N_S.5" vType="car" speedFactor="1.02" vaporized="">
        <emissions CO_abs="1644.210107" CO2_abs="110014.589364" HC_abs="10.115627" PMx_abs="2.201752" NOx_abs="45.618845" fuel_abs="47.290233" electricity_abs="0"/>
    </tripinfo>
    <tripinfo id="W_R.4" depart="33.70" departLane="a4i_0" departPos="4.90" departSpeed="0.00" departDelay="6.50" arrival="60.40" arrivalLane="a1o_0" arrivalPos="174.27" arrivalSpeed="19.31" duration="26.70" routeLength="355.03" waitingTime="0.00" waitingCount="0" stopTime="0.00" timeLoss="7.59" rerouteNo="0" devices="tripinfo_W_R.4 emissions_W_R.4" vType="car" speedFactor="1.02" vaporized="">
        <emissions CO_abs="2824.233240" CO2_abs="166993.260989" HC_abs="16.881259" PMx_abs="3.541017" NOx_abs="71.862439" fuel_abs="71.782597" electricity_abs="0"/>
    </tripinfo>
    <tripinfo id="S_S.9" depart="35.90" departLane="a1i_0" departPos="4.90" departSpeed="0.00" departDelay="4.10" arrival="61.80" arrivalLane="a3o_1" arrivalPos="178.50" arrivalSpeed="17.76" duration="25.90" routeLength="396.73" waitingTime="0.00" waitingCount="0" stopTime="0.00" timeLoss="4.14" rerouteNo="0" devices="tripinfo_S_S.9 emissions_S_S.9" vType="car" speedFactor="0.94" vaporized="">
        <emissions CO_abs="1529.845934" CO2_abs="106337.741837" HC_abs="9.468075" PMx_abs="2.040673" NOx_abs="43.579957" fuel_abs="45.709798" electricity_abs="0"/>
    </tripinfo>
    <tripinfo id="S_R.2" depart="39.20" departLane="a1i_0" departPos="4.90" departSpeed="0.00" departDelay="0.00" arrival="65.70" arrivalLane="a2o_0" arrivalPos="181.00" arrivalSpeed="18.56" duration="26.50" routeLength="371.93" waitingTime="0.00" waitingCount="0" stopTime="0.00" timeLoss="6.11" rerouteNo="0" devices="tripinfo_S_R.2 emissions_S_R.2" vType="car" speedFactor="0.98" vaporized="">
        <emissions CO_abs="2341.460374" CO2_abs="145647.549966" HC_abs="14.152640" PMx_abs="3.006453" NOx_abs="61.852825" fuel_abs="62.607124" electricity_abs="0"/>
    </tripinfo>
    <tripinfo id="N_R.3" depart="39.90" departLane="a3i_0" departPos="4.90" departSpeed="0.00" departDelay="8.30" arrival="66.30" arrivalLane="a4o_0" arrivalPos="176.18" arrivalSpeed="18.69" duration="26.40" routeLength="365.95" waitingTime="0.00" waitingCount="0" stopTime="0.00" timeLoss="6.30" rerouteNo="0" devices="tripinfo_N_R.3 emissions_N_R.3" vType="car" speedFactor="0.99" vaporized="">
        <emissions CO_abs="2370.871102" CO2_abs="145435.439880" HC_abs="14.289704" PMx_abs="3.016610" NOx_abs="61.909102" fuel_abs="62.515950" electricity_abs="0"/>
    </tripinfo>
    <tripinfo id="S_S.10" depart="42.30" departLane="a1i_0" departPos="4.90" departSpeed="0.00" departDelay="0.90" arrival="66.40" arrivalLane="a3o_1" arrivalPos="178.50" arrivalSpeed="19.89" duration="24.10" routeLength="396.73" waitingTime="0.00" waitingCount="0" stopTime="0.00" timeLoss="4.21" rerouteNo="0" devices="tripinfo_S_S.10 emissions_S_S.10" vType="car" speedFactor="1.09" vaporized="">
        <emissions CO_abs="1658.288219" CO2_abs="114110.921881" HC_abs="10.277795" PMx_abs="2.265582" NOx_abs="47.001661" fuel_abs="49.051067" electricity_abs="0"/>
    </tripinfo>
    <tripinfo id="E_R.2" depart="42.50" departLane="a2i_0" departPos="4.90" departSpeed="0.00" departDelay="12.60" arrival="69.20" arrivalLane="a3o_0" arrivalPos="178.50" arrivalSpeed="19.96" duration="26.70" routeLength="363.97" waitingTime="0.00" waitingCount="0" stopTime="0.00" timeLoss="7.57" rerouteNo="0" devices="tripinfo_E_R.2 emissions_E_R.2" vType="car" speedFactor="1.08" vaporized="">
        <emissions CO_abs="2885.914708" CO2_abs="173616.540926" HC_abs="17.326245" PMx_abs="3.684609" NOx_abs="74.607259" fuel_abs="74.629601" electricity_abs="0"/>
    </tripinfo>
    <tripinfo id="N_S.6" depart="45.20" departLane="a3i_0" departPos="4.90" departSpeed="0.00" departDelay="4.90" arrival="69.60" arrivalLane="a1o_1" arrivalPos="174.27" arrivalSpeed="19.05" duration="24.40" routeLength="393.21" waitingTime="0.00" waitingCount="0" stopTime="0.00" timeLoss="4.24" rerouteNo="0" devices="tripinfo_N_S.6 emissions_N_S.6" vType="car" speedFactor="1.01" vaporized="">
        <emissions CO_abs="1617.989591" CO2_abs="109332.170874" HC_abs="9.982896" PMx_abs="2.173463" NOx_abs="45.226287" fuel_abs="46.996904" electricity_abs="0"/>
    </tripinfo>
    <tripinfo id="N_R.4" depart="42.90" departLane="a3i_0" departPos="4.90" departSpeed="0.00" departDelay="4.90" arrival="70.10" arrivalLane="a4o_0" arrivalPos="176.18" arrivalSpeed="18.09" duration="27.20" routeLength="365.95" waitingTime="0.00" waitingCount="0" stopTime="0.00" timeLoss="6.37" rerouteNo="0" devices="tripinfo_N_R.4 emissions_N_R.4" vType="car" speedFactor="0.96" vaporized="">
        <emissions CO_abs="2269.058738" CO2_abs="140184.809665" HC_abs="13.689662" PMx_abs="2.870018" NOx_abs="59.468893" fuel_abs="60.258986" electricity_abs="0"/>
    </tripinfo>
    <tripinfo id="S_R.3" depart="44.60" departLane="a1i_0" departPos="4.90" departSpeed="0.00" departDelay="2.00" arrival="71.00" arrivalLane="a2o_0" arrivalPos="181.00" arrivalSpeed="18.85" duration="26.40" routeLength="371.93" waitingTime="0.00" waitingCount="0" stopTime="0.00" timeLoss="6.33" rerouteNo="0" devices="tripinfo_S_R.3 emissions_S_R.3" vType="car" speedFactor="1.00" vaporized="">
        <emissions CO_abs="2406.520793" CO2_abs="150043.106212" HC_abs="14.546191" PMx_abs="3.103423" NOx_abs="63.682939" fuel_abs="64.496561" electricity_abs="0"/>
    </tripinfo>
    <tripinfo id="E_R.3" depart="44.80" departLane="a2i_0" departPos="4.90" departSpeed="0.00" departDelay="11.30" arrival="73.50" arrivalLane="a3o_0" arrivalPos="178.50" arrivalSpeed="17.17" duration="28.70" routeLength="363.97" waitingTime="0.00" waitingCount="0" stopTime="0.00" timeLoss="7.01" rerouteNo="0" devices="tripinfo_E_R.3 emissions_E_R.3" vType="car" speedFactor="0.91" vaporized="">
        <emissions CO_abs="2408.312839" CO2_abs="144855.086711" HC_abs="14.434490" PMx_abs="2.962457" NOx_abs="61.638318" fuel_abs="62.266562" electricity_abs="0"/>
    </tripinfo>
    <tripinfo id="N_R.5" depart="47.50" departLane="a3i_0" departPos="4.90" departSpeed="0.00" departDelay="0.30" arrival="73.70" arrivalLane="a4o_0" arrivalPos="176.18" arrivalSpeed="19.03" duration="26.20" routeLength="365.95" waitingTime="0.00" waitingCount="0" stopTime="0.00" timeLoss="6.38" rerouteNo="0" devices="tripinfo_N_R.5 emissions_N_R.5" vType="car" speedFactor="1.00" vaporized="">
        <emissions CO_abs="2397.997356" CO2_abs="145684.384245" HC_abs="14.425029" PMx_abs="3.048871" NOx_abs="62.264463" fuel_abs="62.622930" electricity_abs="0"/>
    </tripinfo>
    <tripinfo id="E_S.0" depart="4.00" departLane="a2i_0" departPos="4.90" departSpeed="0.00" departDelay="2.00" arrival="75.10" arrivalLane="a4o_1" arrivalPos="176.18" arrivalSpeed="19.93" duration="71.10" routeLength="395.22" waitingTime="41.00" waitingCount="1" stopTime="0.00" timeLoss="51.29" rerouteNo="0" devices="tripinfo_E_S.0 emissions_E_S.0" vType="car" speedFactor="1.08" vaporized="">
        <emissions CO_abs="9634.035376" CO2_abs="276627.558281" HC_abs="50.469261" PMx_abs="6.252191" NOx_abs="121.521221" fuel_abs="118.912912" electricity_abs="0"/>
    </tripinfo>
    <tripinfo id="W_S.0" depart="0.00" departLane="a4i_0" departPos="4.90" departSpeed="0.00" departDelay="0.00" arrival="75.30" arrivalLane="a2o_1" arrivalPos="181.00" arrivalSpeed="19.91" duration="75.30" routeLength="395.22" waitingTime="45.20" waitingCount="1" stopTime="0.00" timeLoss="55.52" rerouteNo="0" devices="tripinfo_W_S.0 emissions_W_S.0" vType="car" speedFactor="1.06" vaporized="">
        <emissions CO_abs="10293.561043" CO2_abs="288064.726175" HC_abs="53.720560" PMx_abs="6.503934" NOx_abs="126.378847" fuel_abs="123.829611" electricity_abs="0"/>
    </tripinfo>
    <tripinfo id="E_S.3" depart="13.20" departLane="a2i_0" departPos="4.90" departSpeed="0.00" departDelay="6.40" arrival="75.30" arrivalLane="a4o_3" arrivalPos="176.18" arrivalSpeed="19.81" duration="62.10" routeLength="395.22" waitingTime="31.60" waitingCount="1" stopTime="0.00" timeLoss="42.24" rerouteNo="0" devices="tripinfo_E_S.3 emissions_E_S.3" vType="car" speedFactor="1.05" vaporized="">
        <emissions CO_abs="8155.141926" CO2_abs="256681.736001" HC_abs="43.250563" PMx_abs="5.724620" NOx_abs="112.220914" fuel_abs="110.338319" electricity_abs="0"/>
    </tripinfo>
    <tripinfo id="E_R.4" depart="47.10" departLane="a2i_0" departPos="4.90" departSpeed="0.00" departDelay="13.40" arrival="76.00" arrivalLane="a3o_0" arrivalPos="178.50" arrivalSpeed="17.33" duration="28.90" routeLength="363.97" waitingTime="0.00" waitingCount="0" stopTime="0.00" timeLoss="7.44" rerouteNo="0" devices="tripinfo_E_R.4 emissions_E_R.4" vType="car" speedFactor="0.91" vaporized="">
        <emissions CO_abs="2282.758921" CO2_abs="136899.331911" HC_abs="13.661890" PMx_abs="2.791748" NOx_abs="58.200503" fuel_abs="58.846764" electricity_abs="0"/>
    </tripinfo>
    <tripinfo id="W_S.3" depart="16.80" departLane="a4i_0" departPos="4.90" departSpeed="0.00" departDelay="2.20" arrival="76.20" arrivalLane="a2o_3" arrivalPos="181.00" arrivalSpeed="17.95" duration="59.40" routeLength="395.22" waitingTime="28.00" waitingCount="1" stopTime="0.00" timeLoss="37.93" rerouteNo="0" devices="tripinfo_W_S.3 emissions_W_S.3" vType="car" speedFactor="0.95" vaporized="">
        <emissions CO_abs="7270.116624" CO2_abs="228417.330967" HC_abs="38.518961" PMx_abs="5.046792" NOx_abs="99.760602" fuel_abs="98.188520" electricity_abs="0"/>
    </tripinfo>
    <tripinfo id="W_S.1" depart="2.90" departLane="a4i_0" departPos="4.90" departSpeed="0.00" departDelay="0.70" arrival="76.40" arrivalLane="a2o_2" arrivalPos="181.00" arrivalSpeed="18.46" duration="73.50" routeLength="395.22" waitingTime="41.90" waitingCount="1" stopTime="0.00" timeLoss="53.50" rerouteNo="0" devices="tripinfo_W_S.1 emissions_W_S.1" vType="car" speedFactor="1.03" vaporized="">
        <emissions CO_abs="9723.820488" CO2_abs="273180.046035" HC_abs="50.757014" PMx_abs="6.155039" NOx_abs="120.190170" fuel_abs="117.431115" electricity_abs="0"/>
    </tripinfo>
    <tripinfo id="E_S.5" depart="17.80" departLane="a2i_0" departPos="4.90" departSpeed="0.00" departDelay="6.80" arrival="76.40" arrivalLane="a4o_3" arrivalPos="176.18" arrivalSpeed="19.26" duration="58.60" routeLength="395.22" waitingTime="24.40" waitingCount="1" stopTime="0.00" timeLoss="38.53" rerouteNo="0" devices="tripinfo_E_S.5 emissions_E_S.5" vType="car" speedFactor="1.02" vaporized="">
        <emissions CO_abs="5805.206013" CO2_abs="213843.509658" HC_abs="31.536268" PMx_abs="4.663911" NOx_abs="92.787311" fuel_abs="91.923011" electricity_abs="0"/>
    </tripinfo>
    <tripinfo id="W_S.2" depart="7.50" departLane="a4i_0" departPos="4.90" departSpeed="0.00" departDelay="0.90" arrival="77.10" arrivalLane="a2o_1" arrivalPos="181.00" arrivalSpeed="19.42" duration="69.60" routeLength="395.22" waitingTime="34.90" waitingCount="1" stopTime="0.00" timeLoss="49.59" rerouteNo="0" devices="tripinfo_W_S.2 emissions_W_S.2" vType="car" speedFactor="1.03" vaporized="">
        <emissions CO_abs="7990.710510" CO2_abs="258205.038693" HC_abs="42.582641" PMx_abs="5.857453" NOx_abs="114.075088" fuel_abs="110.992747" electricity_abs="0"/>
    </tripinfo>
    <tripinfo id="E_S.1" depart="6.30" departLane="a2i_0" departPos="4.90" departSpeed="0.00" departDelay="4.00" arrival="77.20" arrivalLane="a4o_2" arrivalPos="176.18" arrivalSpeed="15.75" duration="70.90" routeLength="395.22" waitingTime="37.60" waitingCount="1" stopTime="0.00" timeLoss="46.49" rerouteNo="0" devices="tripinfo_E_S.1 emissions_E_S.1" vType="car" speedFactor="0.83" vaporized="">
        <emissions CO_abs="8477.749174" CO2_abs="235912.156835" HC_abs="44.105441" PMx_abs="5.149536" NOx_abs="102.719074" fuel_abs="101.411187" electricity_abs="0"/>
    </tripinfo>
    <tripinfo id="W_S.6" depart="26.30" departLane="a4i_0" departPos="4.90" departSpeed="0.00" departDelay="1.20" arrival="77.30" arrivalLane="a2o_3" arrivalPos="181.00" arrivalSpeed="19.91" duration="51.00" routeLength="395.22" waitingTime="16.30" waitingCount="1" stopTime="0.00" timeLoss="31.15" rerouteNo="0" devices="tripinfo_W_S.6 emissions_W_S.6" vType="car" speedFactor="1.09" vaporized="">
        <emissions CO_abs="4524.233350" CO2_abs="197523.560417" HC_abs="25.324746" PMx_abs="4.228195" NOx_abs="85.205442" fuel_abs="84.907103" electricity_abs="0"/>
    </tripinfo>
    <tripinfo id="W_S.4" depart="21.50" departLane="a4i_0" departPos="4.90" departSpeed="0.00" departDelay="3.80" arrival="77.50" arrivalLane="a2o_2" arrivalPos="181.00" arrivalSpeed="18.82" duration="56.00" routeLength="395.22" waitingTime="21.00" waitingCount="1" stopTime="0.00" timeLoss="35.57" rerouteNo="0" devices="tripinfo_W_S.4 emissions_W_S.4" vType="car" speedFactor="0.99" vaporized="">