<?xml version="1.0" encoding="UTF-8"?>

<!-- generated on 12/03/19 18:05:56 by Eclipse SUMO GUI Version 1.3.1
<configuration xmlns:xsi="http://www.w3.org/2001/XMLSchema-instance" xsi:noNamespaceSchemaLocation="http://sumo.dlr.de/xsd/sumoConfiguration.xsd">

    <input>
        <net-file value="../cfg8_S12W22N12E13/intersection.net.xml"/>
        <route-files value="../cfg8_S12W22N12E13/intersection.rou.xml"/>
        <additional-files value="../cfg8_S12W22N12E13/intersection.det.xml"/>
    </input>

    <output>
        <tripinfo-output value="../result/tripinfo88.xml"/>
    </output>

    <time>
        <begin value="0"/>
        <end value="3800"/>
        <step-length value="0.1"/>
    </time>

    <processing>
        <collision.action value="none"/>
    </processing>

    <emissions>
        <device.emissions.probability value="1"/>
    </emissions>

    <traci_server>
        <remote-port value="63930"/>
    </traci_server>

    <gui_only>
        <tracker-interval value="0.1"/>
    </gui_only>

</configuration>
-->

<tripinfos xmlns:xsi="http://www.w3.org/2001/XMLSchema-instance" xsi:noNamespaceSchemaLocation="http://sumo.dlr.de/xsd/tripinfo_file.xsd">
    <tripinfo id="W_L.0" depart="2.30" departLane="a4i_0" departPos="4.90" departSpeed="0.00" departDelay="1.10" arrival="32.40" arrivalLane="a3o_2" arrivalPos="178.50" arrivalSpeed="17.77" duration="30.10" routeLength="395.12" waitingTime="0.00" waitingCount="0" stopTime="0.00" timeLoss="4.47" rerouteNo="0" devices="tripinfo_W_L.0 emissions_W_L.0" vType="car" speedFactor="0.94" vaporized="">
        <emissions CO_abs="1849.039782" CO2_abs="124336.881733" HC_abs="11.322348" PMx_abs="2.346014" NOx_abs="51.257502" fuel_abs="53.446870" electricity_abs="0"/>
    </tripinfo>
    <tripinfo id="N_R.0" depart="8.60" departLane="a3i_0" departPos="4.90" departSpeed="0.00" departDelay="0.00" arrival="35.80" arrivalLane="a4o_0" arrivalPos="176.18" arrivalSpeed="19.45" duration="27.20" routeLength="365.95" waitingTime="0.00" waitingCount="0" stopTime="0.00" timeLoss="5.03" rerouteNo="0" devices="tripinfo_N_R.0 emissions_N_R.0" vType="car" speedFactor="1.03" vaporized="">
        <emissions CO_abs="2078.792729" CO2_abs="132915.417627" HC_abs="12.621425" PMx_abs="2.644885" NOx_abs="55.723953" fuel_abs="57.134278" electricity_abs="0"/>
    </tripinfo>
    <tripinfo id="N_S.0" depart="12.60" departLane="a3i_0" departPos="4.90" departSpeed="0.00" departDelay="0.00" arrival="42.20" arrivalLane="a1o_1" arrivalPos="174.27" arrivalSpeed="16.67" duration="29.60" routeLength="393.21" waitingTime="0.00" waitingCount="0" stopTime="0.00" timeLoss="2.90" rerouteNo="0" devices="tripinfo_N_S.0 emissions_N_S.0" vType="car" speedFactor="0.88" vaporized="">
        <emissions CO_abs="1332.608541" CO2_abs="96707.904138" HC_abs="8.301712" PMx_abs="1.705452" NOx_abs="38.948840" fuel_abs="41.570513" electricity_abs="0"/>
    </tripinfo>
    <tripinfo id="S_R.0" depart="15.20" departLane="a1i_0" departPos="4.90" departSpeed="0.00" departDelay="0.00" arrival="42.80" arrivalLane="a2o_0" arrivalPos="181.00" arrivalSpeed="19.27" duration="27.60" routeLength="371.93" waitingTime="0.00" waitingCount="0" stopTime="0.00" timeLoss="5.12" rerouteNo="0" devices="tripinfo_S_R.0 emissions_S_R.0" vType="car" speedFactor="1.02" vaporized="">
        <emissions CO_abs="2069.382210" CO2_abs="131478.149656" HC_abs="12.533182" PMx_abs="2.621775" NOx_abs="55.184616" fuel_abs="56.516460" electricity_abs="0"/>
    </tripinfo>
    <tripinfo id="W_R.0" depart="16.90" departLane="a4i_0" departPos="4.90" departSpeed="0.00" departDelay="1.60" arrival="44.50" arrivalLane="a1o_0" arrivalPos="174.27" arrivalSpeed="19.13" duration="27.60" routeLength="355.03" waitingTime="0.00" waitingCount="0" stopTime="0.00" timeLoss="5.67" rerouteNo="0" devices="tripinfo_W_R.0 emissions_W_R.0" vType="car" speedFactor="1.01" vaporized="">
        <emissions CO_abs="2089.896857" CO2_abs="128712.606003" HC_abs="12.567059" PMx_abs="2.569152" NOx_abs="54.206261" fuel_abs="55.327715" electricity_abs="0"/>
    </tripinfo>
    <tripinfo id="E_L.0" depart="15.80" departLane="a2i_0" departPos="4.90" departSpeed="0.00" departDelay="4.00" arrival="46.00" arrivalLane="a1o_2" arrivalPos="174.27" arrivalSpeed="17.60" duration="30.20" routeLength="393.74" waitingTime="0.00" waitingCount="0" stopTime="0.00" timeLoss="4.54" rerouteNo="0" devices="tripinfo_E_L.0 emissions_E_L.0" vType="car" speedFactor="0.93" vaporized="">
        <emissions CO_abs="1826.701691" CO2_abs="121056.158729" HC_abs="11.183012" PMx_abs="2.299467" NOx_abs="50.118600" fuel_abs="52.036628" electricity_abs="0"/>
    </tripinfo>
    <tripinfo id="N_R.1" depart="22.80" departLane="a3i_0" departPos="4.90" departSpeed="0.00" departDelay="0.00" arrival="48.80" arrivalLane="a4o_0" arrivalPos="176.18" arrivalSpeed="19.91" duration="26.00" routeLength="365.95" waitingTime="0.00" waitingCount="0" stopTime="0.00" timeLoss="5.77" rerouteNo="0" devices="tripinfo_N_R.1 emissions_N_R.1" vType="car" speedFactor="1.18" vaporized="">
        <emissions CO_abs="2297.768679" CO2_abs="141358.324194" HC_abs="13.840350" PMx_abs="2.926369" NOx_abs="60.100984" fuel_abs="60.763390" electricity_abs="0"/>
    </tripinfo>
    <tripinfo id="S_S.1" depart="6.90" departLane="a1i_0" departPos="4.90" departSpeed="0.00" departDelay="0.00" arrival="50.60" arrivalLane="a3o_2" arrivalPos="178.50" arrivalSpeed="19.89" duration="43.70" routeLength="396.73" waitingTime="12.20" waitingCount="1" stopTime="0.00" timeLoss="21.75" rerouteNo="0" devices="tripinfo_S_S.1 emissions_S_S.1" vType="car" speedFactor="1.09" vaporized="">
        <emissions CO_abs="4688.169946" CO2_abs="189405.993559" HC_abs="25.854885" PMx_abs="4.022246" NOx_abs="81.364995" fuel_abs="81.418062" electricity_abs="0"/>
    </tripinfo>
    <tripinfo id="S_S.0" depart="3.00" departLane="a1i_0" departPos="4.90" departSpeed="0.00" departDelay="0.00" arrival="53.00" arrivalLane="a3o_1" arrivalPos="178.50" arrivalSpeed="15.76" duration="50.00" routeLength="396.73" waitingTime="14.50" waitingCount="1" stopTime="0.00" timeLoss="21.58" rerouteNo="0" devices="tripinfo_S_S.0 emissions_S_S.0" vType="car" speedFactor="0.83" vaporized="">
        <emissions CO_abs="4397.263552" CO2_abs="156440.040111" HC_abs="23.687495" PMx_abs="3.173771" NOx_abs="66.570746" fuel_abs="67.247957" electricity_abs="0"/>
    </tripinfo>
    <tripinfo id="S_S.3" depart="17.50" departLane="a1i_0" departPos="4.90" departSpeed="0.00" departDelay="1.10" arrival="53.10" arrivalLane="a3o_2" arrivalPos="178.50" arrivalSpeed="16.89" duration="35.60" routeLength="396.73" waitingTime="0.00" waitingCount="0" stopTime="0.00" timeLoss="9.11" rerouteNo="0" devices="tripinfo_S_S.3 emissions_S_S.3" vType="car" speedFactor="0.89" vaporized="">
        <emissions CO_abs="2201.791173" CO2_abs="126602.235249" HC_abs="12.984490" PMx_abs="2.448154" NOx_abs="52.921086" fuel_abs="54.420792" electricity_abs="0"/>
    </tripinfo>
    <tripinfo id="N_S.1" depart="25.80" departLane="a3i_0" departPos="4.90" departSpeed="0.00" departDelay="0.00" arrival="53.10" arrivalLane="a1o_1" arrivalPos="174.27" arrivalSpeed="18.39" duration="27.30" routeLength="393.21" waitingTime="0.00" waitingCount="0" stopTime="0.00" timeLoss="3.19" rerouteNo="0" devices="tripinfo_N_S.1 emissions_N_S.1" vType="car" speedFactor="0.97" vaporized="">
        <emissions CO_abs="1466.464542" CO2_abs="103195.458488" HC_abs="9.082229" PMx_abs="1.931521" NOx_abs="42.137071" fuel_abs="44.359112" electricity_abs="0"/>
    </tripinfo>
    <tripinfo id="S_S.2" depart="9.20" departLane="a1i_0" departPos="4.90" departSpeed="0.00" departDelay="0.30" arrival="54.10" arrivalLane="a3o_1" arrivalPos="178.50" arrivalSpeed="18.47" duration="44.90" routeLength="396.73" waitingTime="7.80" waitingCount="1" stopTime="0.00" timeLoss="22.37" rerouteNo="0" devices="tripinfo_S_S.2 emissions_S_S.2" vType="car" speedFactor="1.05" vaporized="">
        <emissions CO_abs="2603.520143" CO2_abs="146439.275289" HC_abs="15.336810" PMx_abs="2.895789" NOx_abs="61.689348" fuel_abs="62.947826" electricity_abs="0"/>
    </tripinfo>
    <tripinfo id="S_S.4" depart="27.10" departLane="a1i_0" departPos="4.90" departSpeed="0.00" departDelay="0.00" arrival="55.20" arrivalLane="a3o_1" arrivalPos="178.50" arrivalSpeed="19.92" duration="28.10" routeLength="396.73" waitingTime="0.00" waitingCount="0" stopTime="0.00" timeLoss="6.26" rerouteNo="0" devices="tripinfo_S_S.4 emissions_S_S.4" vType="car" speedFactor="1.10" vaporized="">
        <emissions CO_abs="1765.888118" CO2_abs="122231.832701" HC_abs="10.919831" PMx_abs="2.351183" NOx_abs="50.513036" fuel_abs="52.541910" electricity_abs="0"/>
    </tripinfo>
    <tripinfo id="S_S.5" depart="29.50" departLane="a1i_0" departPos="4.90" departSpeed="0.00" departDelay="0.20" arrival="56.30" arrivalLane="a3o_1" arrivalPos="178.50" arrivalSpeed="19.61" duration="26.80" routeLength="396.73" waitingTime="0.00" waitingCount="0" stopTime="0.00" timeLoss="4.12" rerouteNo="0" devices="tripinfo_S_S.5 emissions_S_S.5" vType="car" speedFactor="1.04" vaporized="">
        <emissions CO_abs="1767.787296" CO2_abs="121027.129515" HC_abs="10.896301" PMx_abs="2.366722" NOx_abs="50.164653" fuel_abs="52.024029" electricity_abs="0"/>
    </tripinfo>
    <tripinfo id="S_R.1" depart="31.80" departLane="a1i_0" departPos="4.90" departSpeed="0.00" departDelay="0.80" arrival="58.50" arrivalLane="a2o_0" arrivalPos="181.00" arrivalSpeed="19.97" duration="26.70" routeLength="371.93" waitingTime="0.00" waitingCount="0" stopTime="0.00" timeLoss="5.39" rerouteNo="0" devices="tripinfo_S_R.1 emissions_S_R.1" vType="car" speedFactor="1.09" vaporized="">
        <emissions CO_abs="2174.946879" CO2_abs="137503.573881" HC_abs="13.176135" PMx_abs="2.789153" NOx_abs="57.989751" fuel_abs="59.106457" electricity_abs="0"/>
    </tripinfo>
    <tripinfo id="E_R.0" depart="36.20" departLane="a2i_0" departPos="4.90" departSpeed="0.00" departDelay="2.50" arrival="66.20" arrivalLane="a3o_0" arrivalPos="178.50" arrivalSpeed="17.03" duration="30.00" routeLength="363.97" waitingTime="0.00" waitingCount="0" stopTime="0.00" timeLoss="4.94" rerouteNo="0" devices="tripinfo_E_R.0 emissions_E_R.0" vType="car" speedFactor="0.90" vaporized="">
        <emissions CO_abs="1836.824550" CO2_abs="114243.902802" HC_abs="11.042033" PMx_abs="2.166069" NOx_abs="47.450561" fuel_abs="49.108425" electricity_abs="0"/>
    </tripinfo>
    <tripinfo id="E_S.4" depart="11.20" departLane="a2i_0" departPos="4.90" departSpeed="0.00" departDelay="2.30" arrival="70.20" arrivalLane="a4o_3" arrivalPos="176.18" arrivalSpeed="19.95" duration="59.00" routeLength="395.22" waitingTime="27.70" waitingCount="1" stopTime="0.00" timeLoss="37.43" rerouteNo="0" devices="tripinfo_E_S.4 emissions_E_S.4" vType="car" speedFactor="1.12" vaporized="">
        <emissions CO_abs="7249.316361" CO2_abs="230226.423732" HC_abs="38.482843" PMx_abs="5.069448" NOx_abs="100.293795" fuel_abs="98.966162" electricity_abs="0"/>
    </tripinfo>
    <tripinfo id="W_S.0" depart="0.00" departLane="a4i_0" departPos="4.90" departSpeed="0.00" departDelay="0.00" arrival="70.30" arrivalLane="a2o_1" arrivalPos="181.00" arrivalSpeed="19.96" duration="70.30" routeLength="395.21" waitingTime="39.20" waitingCount="1" stopTime="0.00" timeLoss="48.04" rerouteNo="0" devices="tripinfo_W_S.0 emissions_W_S.0" vType="car" speedFactor="1.06" vaporized="">
        <emissions CO_abs="8937.939807" CO2_abs="250272.470339" HC_abs="46.611912" PMx_abs="5.574629" NOx_abs="109.412993" fuel_abs="107.584052" electricity_abs="0"/>
    </tripinfo>
    <tripinfo id="E_S.0" depart="2.00" departLane="a2i_0" departPos="4.90" departSpeed="0.00" departDelay="0.00" arrival="70.30" arrivalLane="a4o_1" arrivalPos="176.18" arrivalSpeed="19.09" duration="68.30" routeLength="395.22" waitingTime="36.60" waitingCount="1" stopTime="0.00" timeLoss="45.01" rerouteNo="0" devices="tripinfo_E_S.0 emissions_E_S.0" vType="car" speedFactor="1.01" vaporized="">
        <emissions CO_abs="8393.135025" CO2_abs="238251.400800" HC_abs="43.831874" PMx_abs="5.246099" NOx_abs="103.782303" fuel_abs="102.416573" electricity_abs="0"/>
    </tripinfo>
    <tripinfo id="E_S.1" depart="4.30" departLane="a2i_0" departPos="4.90" departSpeed="0.00" departDelay="2.00" arrival="70.40" arrivalLane="a4o_2" arrivalPos="176.18" arrivalSpeed="19.47" duration="66.10" routeLength="395.22" waitingTime="34.10" waitingCount="1" stopTime="0.00" timeLoss="43.22" rerouteNo="0" devices="tripinfo_E_S.1 emissions_E_S.1" vType="car" speedFactor="1.03" vaporized="">
        <emissions CO_abs="8187.181891" CO2_abs="241618.942844" HC_abs="43.012713" PMx_abs="5.331272" NOx_abs="105.410537" fuel_abs="103.863872" electricity_abs="0"/>
    </tripinfo>
    <tripinfo id="W_S.1" depart="3.20" departLane="a4i_0" departPos="4.90" departSpeed="0.00" departDelay="1.00" arrival="70.60" arrivalLane="a2o_1" arrivalPos="181.00" arrivalSpeed="19.91" duration="67.40" routeLength="395.21" waitingTime="35.80" waitingCount="1" stopTime="0.00" timeLoss="45.41" rerouteNo="0" devices="tripinfo_W_S.1 emissions_W_S.1" vType="car" speedFactor="1.08" vaporized="">
        <emissions CO_abs="8548.068395" CO2_abs="248826.295115" HC_abs="44.832811" PMx_abs="5.530861" NOx_abs="108.826826" fuel_abs="106.962108" electricity_abs="0"/>
    </tripinfo>
    <tripinfo id="E_R.1" depart="43.00" departLane="a2i_0" departPos="4.90" departSpeed="0.00" departDelay="5.80" arrival="70.70" arrivalLane="a3o_0" arrivalPos="178.50" arrivalSpeed="19.22" duration="27.70" routeLength="363.97" waitingTime="0.00" waitingCount="0" stopTime="0.00" timeLoss="5.46" rerouteNo="0" devices="tripinfo_E_R.1 emissions_E_R.1" vType="car" speedFactor="1.02" vaporized="">
        <emissions CO_abs="2110.431841" CO2_abs="131474.634917" HC_abs="12.748033" PMx_abs="2.635089" NOx_abs="55.380787" fuel_abs="56.514958" electricity_abs="0"/>
    </tripinfo>
    <tripinfo id="E_S.2" depart="6.60" departLane="a2i_0" departPos="4.90" departSpeed="0.00" departDelay="1.90" arrival="71.50" arrivalLane="a4o_1" arrivalPos="176.18" arrivalSpeed="19.78" duration="64.90" routeLength="395.22" waitingTime="30.00" waitingCount="1" stopTime="0.00" timeLoss="42.32" rerouteNo="0" devices="tripinfo_E_S.2 emissions_E_S.2" vType="car" speedFactor="1.05" vaporized="">
        <emissions CO_abs="6379.493517" CO2_abs="209536.147347" HC_abs="34.013583" PMx_abs="4.555665" NOx_abs="90.890518" fuel_abs="90.072048" electricity_abs="0"/>
    </tripinfo>
    <tripinfo id="W_S.3" depart="14.60" departLane="a4i_0" departPos="4.90" departSpeed="0.00" departDelay="0.00" arrival="71.70" arrivalLane="a2o_2" arrivalPos="181.00" arrivalSpeed="19.99" duration="57.10" routeLength="395.21" waitingTime="22.90" waitingCount="1" stopTime="0.00" timeLoss="35.96" rerouteNo="0" devices="tripinfo_W_S.3 emissions_W_S.3" vType="car" speedFactor="1.16" vaporized="">
        <emissions CO_abs="5307.204422" CO2_abs="197343.123255" HC_abs="28.857983" PMx_abs="4.242233" NOx_abs="85.093238" fuel_abs="84.830200" electricity_abs="0"/>
    </tripinfo>
    <tripinfo id="E_S.6" depart="16.40" departLane="a2i_0" departPos="4.90" departSpeed="0.00" departDelay="3.70" arrival="72.10" arrivalLane="a4o_3" arrivalPos="176.18" arrivalSpeed="17.81" duration="55.70" routeLength="395.22" waitingTime="19.10" waitingCount="1" stopTime="0.00" timeLoss="30.61" rerouteNo="0" devices="tripinfo_E_S.6 emissions_E_S.6" vType="car" speedFactor="0.94" vaporized="">
        <emissions CO_abs="4367.482258" CO2_abs="169942.194623" HC_abs="23.874475" PMx_abs="3.504599" NOx_abs="72.456528" fuel_abs="73.051631" electricity_abs="0"/>
    </tripinfo>
    <tripinfo id="W_S.2" depart="6.60" departLane="a4i_0" departPos="4.90" departSpeed="0.00" departDelay="0.00" arrival="72.40" arrivalLane="a2o_1" arrivalPos="181.00" arrivalSpeed="17.80" duration="65.80" routeLength="395.21" waitingTime="29.70" waitingCount="1" stopTime="0.00" timeLoss="40.69" rerouteNo="0" devices="tripinfo_W_S.2 emissions_W_S.2" vType="car" speedFactor="0.94" vaporized="">
        <emissions CO_abs="6017.947508" CO2_abs="191163.944298" HC_abs="31.913343" PMx_abs="4.078957" NOx_abs="82.484810" fuel_abs="82.174781" electricity_abs="0"/>
    </tripinfo>
    <tripinfo id="W_S.5" depart="23.90" departLane="a4i_0" departPos="4.90" departSpeed="0.00" departDelay="0.00" arrival="72.80" arrivalLane="a2o_2" arrivalPos="181.00" arrivalSpeed="19.92" duration="48.90" routeLength="395.21" waitingTime="14.10" waitingCount="1" stopTime="0.00" timeLoss="27.71" rerouteNo="0" devices="tripinfo_W_S.5 emissions_W_S.5" vType="car" speedFactor="1.15" vaporized="">
        <emissions CO_abs="3926.296247" CO2_abs="177302.107782" HC_abs="22.097287" PMx_abs="3.714636" NOx_abs="75.749748" fuel_abs="76.214775" electricity_abs="0"/>
    </tripinfo>
    <tripinfo id="E_S.3" depart="8.90" departLane="a2i_0" departPos="4.90" departSpeed="0.00" departDelay="2.10" arrival="73.00" arrivalLane="a4o_2" arrivalPos="176.18" arrivalSpeed="16.21" duration="64.10" routeLength="395.22" waitingTime="25.90" waitingCount="1" stopTime="0.00" timeLoss="36.57" rerouteNo="0" devices="tripinfo_E_S.3 emissions_E_S.3" vType="car" speedFactor="0.86" vaporized="">
        <emissions CO_abs="5289.618497" CO2_abs="173664.029567" HC_abs="28.168660" PMx_abs="3.615447" NOx_abs="74.511469" fuel_abs="74.652140" electricity_abs="0"/>
    </tripinfo>
    <tripinfo id="E_S.9" depart="23.50" departLane="a2i_0" departPos="4.90" departSpeed="0.00" departDelay="5.30" arrival="73.30" arrivalLane="a4o_3" arrivalPos="176.18" arrivalSpeed="17.35" duration="49.80" routeLength="395.22" waitingTime="12.70" waitingCount="1" stopTime="0.00" timeLoss="24.13" rerouteNo="0" devices="tripinfo_E_S.9 emissions_E_S.9" vType="car" speedFactor="0.92" vaporized="">
        <emissions CO_abs="3297.980079" CO2_abs="148605.720690" HC_abs="18.530154" PMx_abs="3.003341" NOx_abs="63.061184" fuel_abs="63.879541" electricity_abs="0"/>
    </tripinfo>
    <tripinfo id="E_S.5" depart="13.50" departLane="a2i_0" departPos="4.90" departSpeed="0.00" departDelay="2.50" arrival="73.70" arrivalLane="a4o_1" arrivalPos="176.18" arrivalSpeed="18.19" duration="60.20" routeLength="395.22" waitingTime="23.70" waitingCount="1" stopTime="0.00" timeLoss="36.40" rerouteNo="0" devices="tripinfo_E_S.5 emissions_E_S.5" vType="car" speedFactor="0.99" vaporized="">
        <emissions CO_abs="6244.028957" CO2_abs="241560.333834" HC_abs="34.228108" PMx_abs="5.289675" NOx_abs="105.456067" fuel_abs="103.837048" electricity_abs="0"/>
    </tripinfo>
    <tripinfo id="W_S.7" depart="29.50" departLane="a4i_0" departPos="4.90" departSpeed="0.00" departDelay="2.60" arrival="73.90" arrivalLane="a2o_2" arrivalPos="181.00" arrivalSpeed="19.89" duration="44.40" routeLength="395.21" waitingTime="9.40" waitingCount="1" stopTime="0.00" timeLoss="23.44" rerouteNo="0" devices="tripinfo_W_S.7 emissions_W_S.7" vType="car" speedFactor="1.18" vaporized="">
        <emissions CO_abs="3171.033050" CO2_abs="166600.723091" HC_abs="18.413944" PMx_abs="3.430712" NOx_abs="70.705265" fuel_abs="71.614354" electricity_abs="0"/>
    </tripinfo>
    <tripinfo id="E_S.7" depart="18.80" departLane="a2i_0" departPos="4.90" departSpeed="0.00" departDelay="4.90" arrival="74.10" arrivalLane="a4o_2" arrivalPos="176.18" arrivalSpeed="17.71" duration="55.30" routeLength="395.22" waitingTime="17.70" waitingCount="1" stopTime="0.00" timeLoss="30.14" rerouteNo="0" devices="tripinfo_E_S.7 emissions_E_S.7" vType="car" speedFactor="0.94" vaporized="">
        <emissions CO_abs="4096.705006" CO2_abs="163196.166294" HC_abs="22.493641" PMx_abs="3.319279" NOx_abs="69.400882" fuel_abs="70.151751" electricity_abs="0"/>
    </tripinfo>
    <tripinfo id="E_S.12" depart="31.00" departLane="a2i_0" departPos="4.90" departSpeed="0.00" departDelay="3.30" arrival="74.40" arrivalLane="a4o_3" arrivalPos="176.18" arrivalSpeed="19.55" duration="43.40" routeLength="395.22" waitingTime="6.50" waitingCount="1" stopTime="0.00" timeLoss="20.54" rerouteNo="0" devices="tripinfo_E_S.12 emissions_E_S.12" vType="car" speedFactor="1.03" vaporized="">
        <emissions CO_abs="2875.562609" CO2_abs="158262.263954" HC_abs="16.842222" PMx_abs="3.202997" NOx_abs="67.098040" fuel_abs="68.029951" electricity_abs="0"/>
    </tripinfo>
    <tripinfo id="E_S.8" depart="21.20" departLane="a2i_0" departPos="4.90" departSpeed="0.00" departDelay="5.00" arrival="74.80" arrivalLane="a4o_1" arrivalPos="176.18" arrivalSpeed="18.48" duration="53.60" routeLength="395.22" waitingTime="16.60" waitingCount="1" stopTime="0.00" timeLoss="29.43" rerouteNo="0" devices="tripinfo_E_S.8 emissions_E_S.8" vType="car" speedFactor="0.98" vaporized="">
        <emissions CO_abs="4940.591131" CO2_abs="214286.595907" HC_abs="27.640172" PMx_abs="4.609798" NOx_abs="92.989981" fuel_abs="92.112784" electricity_abs="0"/>
    </tripinfo>
    <tripinfo id="W_S.4" depart="19.20" departLane="a4i_0" departPos="4.90" departSpeed="0.00" departDelay="1.50" arrival="74.80" arrivalLane="a2o_1" arrivalPos="181.00" arrivalSpeed="15.60" duration="55.60" routeLength="395.21" waitingTime="17.00" waitingCount="1" stopTime="0.00" timeLoss="27.15" rerouteNo="0" devices="tripinfo_W_S.4 emissions_W_S.4" vType="car" speedFactor="0.83" vaporized="">
        <emissions CO_abs="3725.419431" CO2_abs="145777.177492" HC_abs="20.370125" PMx_abs="2.882171" NOx_abs="61.486830" fuel_abs="62.664177" electricity_abs="0"/>
    </tripinfo>
    <tripinfo id="N_R.2" depart="47.20" departLane="a3i_0" departPos="4.90" departSpeed="0.00" departDelay="0.00" arrival="74.90" arrivalLane="a4o_0" arrivalPos="176.18" arrivalSpeed="18.65" duration="27.70" routeLength="365.95" waitingTime="0.00" waitingCount="0" stopTime="0.00" timeLoss="6.43" rerouteNo="0" devices="tripinfo_N_R.2 emissions_N_R.2" vType="car" speedFactor="1.08" vaporized="">
        <emissions CO_abs="2799.227184" CO2_abs="169344.212891" HC_abs="16.830404" PMx_abs="3.574233" NOx_abs="72.867871" fuel_abs="72.793123" electricity_abs="0"/>
    </tripinfo>
    <tripinfo id="W_S.10" depart="36.80" departLane="a4i_0" departPos="4.90" departSpeed="0.00" departDelay="0.00" arrival="75.00" arrivalLane="a2o_2" arrivalPos="181.00" arrivalSpeed="19.95" duration="38.20" routeLength="395.21" waitingTime="2.90" waitingCount="1" stopTime="0.00" timeLoss="17.13" rerouteNo="0" devices="tripinfo_W_S.10 emissions_W_S.10" vType="car" speedFactor="1.17" vaporized="">
        <emissions CO_abs="2971.329554" CO2_abs="163073.736439" HC_abs="17.420742" PMx_abs="3.348037" NOx_abs="69.189116" fuel_abs="70.098154" electricity_abs="0"/>
    </tripinfo>
    <tripinfo id="E_S.10" depart="25.80" departLane="a2i_0" departPos="4.90" departSpeed="0.00" departDelay="5.50" arrival="75.20" arrivalLane="a4o_2" arrivalPos="176.18" arrivalSpeed="18.02" duration="49.40" routeLength="395.22" waitingTime="11.70" waitingCount="1" stopTime="0.00" timeLoss="24.57" rerouteNo="0" devices="tripinfo_E_S.10 emissions_E_S.10" vType="car" speedFactor="0.95" vaporized="">
        <emissions CO_abs="3226.926338" CO2_abs="151372.710382" HC_abs="18.265576" PMx_abs="3.040500" NOx_abs="64.137744" fuel_abs="65.068869" electricity_abs="0"/>
    </tripinfo>
    <tripinfo id="W_S.6" depart="27.10" departLane="a4i_0" departPos="4.90" departSpeed="0.00" departDelay="2.00" arrival="75.90" arrivalLane="a2o_1" arrivalPos="181.00" arrivalSpeed="17.99" duration="48.80" routeLength="395.21" waitingTime="11.30" waitingCount="1" stopTime="0.00" timeLoss="25.79" rerouteNo="0" devices="tripinfo_W_S.6 emissions_W_S.6" vType="car" speedFactor="1.02" vaporized="">
        <emissions CO_abs="3153.012194" CO2_abs="151734.852527" HC_abs="17.955462" PMx_abs="3.038433" NOx_abs="64.213884" fuel_abs="65.224488" electricity_abs="0"/>
    </tripinfo>
    <tripinfo id="E_S.11" depart="28.70" departLane="a2i_0" departPos="4.90" departSpeed="0.00" departDelay="6.40" arrival="76.00" arrivalLane="a4o_1" arrivalPos="176.18" arrivalSpeed="17.67" duration="47.30" routeLength="395.22" waitingTime="9.90" waitingCount="1" stopTime="0.00" timeLoss="21.96" rerouteNo="0" devices="tripinfo_E_S.11 emissions_E_S.11" vType="car" speedFactor="0.93" vaporized="">
        <emissions CO_abs="3463.512716" CO2_abs="176979.022475" HC_abs="20.005448" PMx_abs="3.658655" NOx_abs="75.746954" fuel_abs="76.075537" electricity_abs="0"/>
    </tripinfo>
    <tripinfo id="W_S.11" depart="39.10" departLane="a4i_0" departPos="4.90" departSpeed="0.00" departDelay="0.00" arrival="76.10" arrivalLane="a2o_2" arrivalPos="181.00" arrivalSpeed="19.03" duration="37.00" routeLength="395.21" waitingTime="0.00" waitingCount="0" stopTime="0.00" timeLoss="13.61" rerouteNo="0" devices="tripinfo_W_S.11 emissions_W_S.11" vType="car" speedFactor="1.00" vaporized="">
        <emissions CO_abs="2632.157512" CO2_abs="147447.480590" HC_abs="15.490520" PMx_abs="2.939727" NOx_abs="61.972217" fuel_abs="63.381211" electricity_abs="0"/>
    </tripinfo>
    <tripinfo id="E_S.15" depart="40.70" departLane="a2i_0" departPos="4.90" departSpeed="0.00" departDelay="5.20" arrival="76.20" arrivalLane="a4o_3" arrivalPos="176.18" arrivalSpeed="16.21" duration="35.50" routeLength="395.22" waitingTime="0.00" waitingCount="0" stopTime="0.00" timeLoss="7.93" rerouteNo="0" devices="tripinfo_E_S.15 emissions_E_S.15" vType="car" speedFactor="0.85" vaporized="">
        <emissions CO_abs="2106.581463" CO2_abs="124229.631591" HC_abs="12.493212" PMx_abs="2.348411" NOx_abs="51.621957" fuel_abs="53.400946" electricity_abs="0"/>
    </tripinfo>
    <tripinfo id="E_S.13" depart="33.90" departLane="a2i_0" departPos="4.90" departSpeed="0.00" departDelay="5.90" arrival="76.50" arrivalLane="a4o_2" arrivalPos="176.18" arrivalSpeed="17.35" duration="42.60" routeLength="395.22" waitingTime="5.10" waitingCount="1" stopTime="0.00" timeLoss="20.69" rerouteNo="0" devices="tripinfo_E_S.13 emissions_E_S.13" vType="car" speedFactor="1.09" vaporized="">
        <emissions CO_abs="3029.698663" CO2_abs="163612.141153" HC_abs="17.703645" PMx_abs="3.327539" NOx_abs="69.649368" fuel_abs="70.329638" electricity_abs="0"/>
    </tripinfo>
    <tripinfo id="W_S.8" depart="31.80" departLane="a4i_0" departPos="4.90" departSpeed="0.00" departDelay="4.60" arrival="77.10" arrivalLane="a2o_1" arrivalPos="181.00" arrivalSpeed="17.05" duration="45.30" routeLength="395.21" waitingTime="6.90" waitingCount="1" stopTime="0.00" timeLoss="19.20" rerouteNo="0" devices="tripinfo_W_S.8 emissions_W_S.8" vType="car" speedFactor="0.90" vaporized="">
        <emissions CO_abs="2492.583524" CO2_abs="135860.643324" HC_abs="14.565449" PMx_abs="2.600288" NOx_abs="56.681008" fuel_abs="58.400734" electricity_abs="0"/>
    </tripinfo>
    <tripinfo id="E_S.14" depart="38.50" departLane="a2i_0" departPos="4.90" departSpeed="0.00" departDelay="3.30" arrival="77.30" arrivalLane="a4o_1" arrivalPos="176.18" arrivalSpeed="16.57" duration="38.80" routeLength="395.22" waitingTime="0.40" waitingCount="1" stopTime="0.00" timeLoss="11.90" rerouteNo="0" devices="tripinfo_E_S.14 emissions_E_S.14" vType="car" speedFactor="0.88" vaporized="">
        <emissions CO_abs="2799.007498" CO2_abs="155024.416646" HC_abs="16.426625" PMx_abs="3.101587" NOx_abs="65.659318" fuel_abs="66.638169" electricity_abs="0"/>
    </tripinfo>
    <tripinfo id="E_S.16" depart="45.30" departLane="a2i_0" departPos="4.90" departSpeed="0.00" departDelay="6.20" arrival="77.60" arrivalLane="a4o_2" arrivalPos="176.18" arrivalSpeed="19.53" duration="32.30" routeLength="395.22" waitingTime="0.00" waitingCount="0" stopTime="0.00" timeLoss="10.43" rerouteNo="0" devices="tripinfo_E_S.16 emissions_E_S.16" vType="car" speedFactor="1.10" vaporized="">
        <emissions CO_abs="2508.844820" CO2_abs="158995.711325" HC_abs="15.209307" PMx_abs="3.146829" NOx_abs="66.926043" fuel_abs="68.345017" electricity_abs="0"/>
    </tripinfo>
    <tripinfo id="W_S.9" depart="34.10" departLane="a4i_0" departPos="4.90" departSpeed="0.00" departDelay="1.60" arrival="78.20" arrivalLane="a2o_1" arrivalPos="181.00" arrivalSpeed="18.93" duration="44.10" routeLength="395.21" waitingTime="5.20" waitingCount="1" stopTime="0.00" timeLoss="20.52" rerouteNo="0" devices="tripinfo_W_S.9 emissions_W_S.9" vType="car" speedFactor="1.00" vaporized="">
        <emissions CO_abs="2788.356736" CO2_abs="149110.088581" HC_abs="16.220077" PMx_abs="2.951167" NOx_abs="62.883928" fuel_abs="64.095996" electricity_abs="0"/>
    </tripinfo>
    <tripinfo id="E_S.17" depart="52.90" departLane="a2i_0" departPos="4.90" departSpeed="0.00" departDelay="0.00" arrival="79.00" arrivalLane="a4o_1" arrivalPos="176.18" arrivalSpeed="19.64" duration="26.10" routeLength="395.22" waitingTime="0.00" waitingCount="0" stopTime="0.00" timeLoss="3.45" rerouteNo="0" devices="tripinfo_E_S.17 emissions_E_S.17" vType="car" speedFactor="1.04" vaporized="">
        <emissions CO_abs="1751.390494" CO2_abs="123824.415063" HC_abs="10.897136" PMx_abs="2.402203" NOx_abs="50.906939" fuel_abs="53.226466" electricity_abs="0"/>
    </tripinfo>
    <tripinfo id="N_R.3" depart="52.00" departLane="a3i_0" departPos="4.90" departSpeed="0.00" departDelay="0.10" arrival="81.50" arrivalLane="a4o_0" arrivalPos="176.18" arrivalSpeed="17.13" duration="29.50" routeLength="365.95" waitingTime="0.00" waitingCount="0" stopTime="0.00" timeLoss="4.36" rerouteNo="0" devices="tripinfo_N_R.3 emissions_N_R.3" vType="car" speedFactor="0.91" vaporized="">
        <emissions CO_abs="1814.366276" CO2_abs="115864.710740" HC_abs="10.994554" PMx_abs="2.213245" NOx_abs="48.180502" fuel_abs="49.805079" electricity_abs="0"/>
    </tripinfo>
    <tripinfo id="E_S.18" depart="55.20" departLane="a2i_0" departPos="4.90" departSpeed="0.00" departDelay="1.40" arrival="81.50" arrivalLane="a4o_1" arrivalPos="176.18" arrivalSpeed="19.36" duration="26.30" routeLength="395.22" waitingTime="0.00" waitingCount="0" stopTime="0.00" timeLoss="3.29" rerouteNo="0" devices="tripinfo_E_S.18 emissions_E_S.18" vType="car" speedFactor="1.02" vaporized="">