<?xml version="1.0" encoding="UTF-8"?>

<!-- generated on 12/04/19 20:30:44 by Eclipse SUMO GUI Version 1.3.1
<configuration xmlns:xsi="http://www.w3.org/2001/XMLSchema-instance" xsi:noNamespaceSchemaLocation="http://sumo.dlr.de/xsd/sumoConfiguration.xsd">

    <input>
        <net-file value="../cfg1B/intersection.net.xml"/>
        <route-files value="../cfg1B/intersection.rou.xml"/>
        <additional-files value="../cfg1B/intersection.det.xml"/>
    </input>

    <output>
        <tripinfo-output value="../result/tripinfo102.xml"/>
    </output>

    <time>
        <begin value="0"/>
        <end value="3800"/>
        <step-length value="0.1"/>
    </time>

    <processing>
        <collision.action value="none"/>
    </processing>

    <emissions>
        <device.emissions.probability value="1"/>
    </emissions>

    <traci_server>
        <remote-port value="60929"/>
    </traci_server>

    <gui_only>
        <tracker-interval value="0.1"/>
    </gui_only>

</configuration>
-->

<tripinfos xmlns:xsi="http://www.w3.org/2001/XMLSchema-instance" xsi:noNamespaceSchemaLocation="http://sumo.dlr.de/xsd/tripinfo_file.xsd">
    <tripinfo id="W_L.0" depart="2.30" departLane="a4i_0" departPos="4.90" departSpeed="0.00" departDelay="1.10" arrival="30.70" arrivalLane="a3o_2" arrivalPos="178.50" arrivalSpeed="17.81" duration="28.40" routeLength="392.39" waitingTime="0.00" waitingCount="0" stopTime="0.00" timeLoss="5.89" rerouteNo="0" devices="tripinfo_W_L.0 emissions_W_L.0" vType="car" speedFactor="0.94" vaporized="">
        <emissions CO_abs="2199.400648" CO2_abs="141088.673813" HC_abs="13.348993" PMx_abs="2.828823" NOx_abs="59.277012" fuel_abs="60.647547" electricity_abs="0"/>
    </tripinfo>
    <tripinfo id="N_R.0" depart="8.60" departLane="a3i_0" departPos="4.90" departSpeed="0.00" departDelay="0.00" arrival="35.60" arrivalLane="a4o_0" arrivalPos="176.18" arrivalSpeed="17.74" duration="27.00" routeLength="365.95" waitingTime="0.00" waitingCount="0" stopTime="0.00" timeLoss="5.79" rerouteNo="0" devices="tripinfo_N_R.0 emissions_N_R.0" vType="car" speedFactor="0.94" vaporized="">
        <emissions CO_abs="2218.197579" CO2_abs="138064.162580" HC_abs="13.366529" PMx_abs="2.804265" NOx_abs="58.362262" fuel_abs="59.347437" electricity_abs="0"/>
    </tripinfo>
    <tripinfo id="S_R.0" depart="15.20" departLane="a1i_0" departPos="4.90" departSpeed="0.00" departDelay="0.00" arrival="41.30" arrivalLane="a2o_0" arrivalPos="181.00" arrivalSpeed="19.90" duration="26.10" routeLength="371.93" waitingTime="0.00" waitingCount="0" stopTime="0.00" timeLoss="6.70" rerouteNo="0" devices="tripinfo_S_R.0 emissions_S_R.0" vType="car" speedFactor="1.12" vaporized="">
        <emissions CO_abs="2726.768878" CO2_abs="167055.541891" HC_abs="16.459022" PMx_abs="3.540378" NOx_abs="71.579307" fuel_abs="71.809321" electricity_abs="0"/>
    </tripinfo>
    <tripinfo id="S_S.1" depart="6.90" departLane="a1i_0" departPos="4.90" departSpeed="0.00" departDelay="0.00" arrival="42.10" arrivalLane="a3o_2" arrivalPos="178.50" arrivalSpeed="16.73" duration="35.20" routeLength="396.73" waitingTime="2.70" waitingCount="1" stopTime="0.00" timeLoss="11.75" rerouteNo="0" devices="tripinfo_S_S.1 emissions_S_S.1" vType="car" speedFactor="0.89" vaporized="">
        <emissions CO_abs="2911.387362" CO2_abs="154969.324362" HC_abs="16.891233" PMx_abs="3.127029" NOx_abs="65.534982" fuel_abs="66.614562" electricity_abs="0"/>
    </tripinfo>
    <tripinfo id="S_S.0" depart="3.00" departLane="a1i_0" departPos="4.90" departSpeed="0.00" departDelay="0.00" arrival="42.30" arrivalLane="a3o_1" arrivalPos="178.50" arrivalSpeed="17.25" duration="39.30" routeLength="396.73" waitingTime="7.30" waitingCount="1" stopTime="0.00" timeLoss="19.17" rerouteNo="0" devices="tripinfo_S_S.0 emissions_S_S.0" vType="car" speedFactor="1.08" vaporized="">
        <emissions CO_abs="3976.747807" CO2_abs="184398.101527" HC_abs="22.462868" PMx_abs="3.862053" NOx_abs="78.934524" fuel_abs="79.264934" electricity_abs="0"/>
    </tripinfo>
    <tripinfo id="S_S.2" depart="9.20" departLane="a1i_0" departPos="4.90" departSpeed="0.00" departDelay="0.30" arrival="43.50" arrivalLane="a3o_2" arrivalPos="178.50" arrivalSpeed="16.20" duration="34.30" routeLength="396.73" waitingTime="0.00" waitingCount="0" stopTime="0.00" timeLoss="10.05" rerouteNo="0" devices="tripinfo_S_S.2 emissions_S_S.2" vType="car" speedFactor="0.86" vaporized="">
        <emissions CO_abs="2331.240141" CO2_abs="135033.518032" HC_abs="13.791716" PMx_abs="2.669597" NOx_abs="56.826514" fuel_abs="58.044931" electricity_abs="0"/>
    </tripinfo>
    <tripinfo id="W_R.0" depart="16.90" departLane="a4i_0" departPos="4.90" departSpeed="0.00" departDelay="1.60" arrival="43.80" arrivalLane="a1o_0" arrivalPos="174.27" arrivalSpeed="18.73" duration="26.90" routeLength="355.03" waitingTime="0.00" waitingCount="0" stopTime="0.00" timeLoss="7.42" rerouteNo="0" devices="tripinfo_W_R.0 emissions_W_R.0" vType="car" speedFactor="0.99" vaporized="">
        <emissions CO_abs="2637.688952" CO2_abs="157578.054107" HC_abs="15.781813" PMx_abs="3.303244" NOx_abs="67.479024" fuel_abs="67.735480" electricity_abs="0"/>
    </tripinfo>
    <tripinfo id="S_S.3" depart="17.50" departLane="a1i_0" departPos="4.90" departSpeed="0.00" departDelay="1.10" arrival="44.70" arrivalLane="a3o_2" arrivalPos="178.50" arrivalSpeed="17.57" duration="27.20" routeLength="396.73" waitingTime="0.00" waitingCount="0" stopTime="0.00" timeLoss="4.78" rerouteNo="0" devices="tripinfo_S_S.3 emissions_S_S.3" vType="car" speedFactor="0.93" vaporized="">
        <emissions CO_abs="1692.282699" CO2_abs="115234.665491" HC_abs="10.416966" PMx_abs="2.240476" NOx_abs="47.764362" fuel_abs="49.534133" electricity_abs="0"/>
    </tripinfo>
    <tripinfo id="N_R.1" depart="22.80" departLane="a3i_0" departPos="4.90" departSpeed="0.00" departDelay="0.00" arrival="49.00" arrivalLane="a4o_0" arrivalPos="176.18" arrivalSpeed="19.32" duration="26.20" routeLength="365.95" waitingTime="0.00" waitingCount="0" stopTime="0.00" timeLoss="6.48" rerouteNo="0" devices="tripinfo_N_R.1 emissions_N_R.1" vType="car" speedFactor="1.02" vaporized="">
        <emissions CO_abs="2449.624828" CO2_abs="150503.656282" HC_abs="14.772322" PMx_abs="3.130903" NOx_abs="64.077092" fuel_abs="64.694528" electricity_abs="0"/>
    </tripinfo>
    <tripinfo id="N_S.0" depart="25.80" departLane="a3i_0" departPos="4.90" departSpeed="0.00" departDelay="0.00" arrival="52.80" arrivalLane="a1o_1" arrivalPos="174.27" arrivalSpeed="16.83" duration="27.00" routeLength="393.21" waitingTime="0.00" waitingCount="0" stopTime="0.00" timeLoss="3.92" rerouteNo="0" devices="tripinfo_N_S.0 emissions_N_S.0" vType="car" speedFactor="0.89" vaporized="">
        <emissions CO_abs="1535.871046" CO2_abs="108165.648517" HC_abs="9.509685" PMx_abs="2.039114" NOx_abs="44.265700" fuel_abs="46.495550" electricity_abs="0"/>
    </tripinfo>
    <tripinfo id="S_S.4" depart="27.10" departLane="a1i_0" departPos="4.90" departSpeed="0.00" departDelay="0.00" arrival="55.90" arrivalLane="a3o_1" arrivalPos="178.50" arrivalSpeed="15.63" duration="28.80" routeLength="396.73" waitingTime="0.00" waitingCount="0" stopTime="0.00" timeLoss="3.60" rerouteNo="0" devices="tripinfo_S_S.4 emissions_S_S.4" vType="car" speedFactor="0.83" vaporized="">
        <emissions CO_abs="1423.089042" CO2_abs="102311.283566" HC_abs="8.852780" PMx_abs="1.862291" NOx_abs="41.567878" fuel_abs="43.979086" electricity_abs="0"/>
    </tripinfo>
    <tripinfo id="S_S.5" depart="29.40" departLane="a1i_0" departPos="4.90" departSpeed="0.00" departDelay="0.10" arrival="55.90" arrivalLane="a3o_2" arrivalPos="178.50" arrivalSpeed="17.60" duration="26.50" routeLength="396.73" waitingTime="0.00" waitingCount="0" stopTime="0.00" timeLoss="4.17" rerouteNo="0" devices="tripinfo_S_S.5 emissions_S_S.5" vType="car" speedFactor="0.93" vaporized="">
        <emissions CO_abs="1667.662351" CO2_abs="114130.559894" HC_abs="10.292265" PMx_abs="2.230561" NOx_abs="47.258576" fuel_abs="49.059518" electricity_abs="0"/>
    </tripinfo>
    <tripinfo id="S_R.1" depart="31.70" departLane="a1i_0" departPos="4.90" departSpeed="0.00" departDelay="0.70" arrival="57.50" arrivalLane="a2o_0" arrivalPos="181.00" arrivalSpeed="19.97" duration="25.80" routeLength="371.93" waitingTime="0.00" waitingCount="0" stopTime="0.00" timeLoss="6.55" rerouteNo="0" devices="tripinfo_S_R.1 emissions_S_R.1" vType="car" speedFactor="1.18" vaporized="">
        <emissions CO_abs="2522.578351" CO2_abs="156252.492010" HC_abs="15.252680" PMx_abs="3.268076" NOx_abs="66.512275" fuel_abs="67.165655" electricity_abs="0"/>
    </tripinfo>
    <tripinfo id="E_R.0" depart="33.70" departLane="a2i_0" departPos="4.90" departSpeed="0.00" departDelay="0.00" arrival="60.60" arrivalLane="a3o_0" arrivalPos="178.50" arrivalSpeed="19.01" duration="26.90" routeLength="363.97" waitingTime="0.00" waitingCount="0" stopTime="0.00" timeLoss="7.30" rerouteNo="0" devices="tripinfo_E_R.0 emissions_E_R.0" vType="car" speedFactor="1.01" vaporized="">
        <emissions CO_abs="2760.388160" CO2_abs="165608.830915" HC_abs="16.549124" PMx_abs="3.499803" NOx_abs="71.116100" fuel_abs="71.187485" electricity_abs="0"/>
    </tripinfo>
    <tripinfo id="N_S.1" depart="40.30" departLane="a3i_0" departPos="4.90" departSpeed="0.00" departDelay="0.00" arrival="64.30" arrivalLane="a1o_1" arrivalPos="174.27" arrivalSpeed="19.99" duration="24.00" routeLength="393.21" waitingTime="0.00" waitingCount="0" stopTime="0.00" timeLoss="4.11" rerouteNo="0" devices="tripinfo_N_S.1 emissions_N_S.1" vType="car" speedFactor="1.10" vaporized="">
        <emissions CO_abs="1767.407480" CO2_abs="119145.727248" HC_abs="10.896654" PMx_abs="2.403903" NOx_abs="49.467193" fuel_abs="51.215256" electricity_abs="0"/>
    </tripinfo>
    <tripinfo id="E_R.1" depart="38.30" departLane="a2i_0" departPos="4.90" departSpeed="0.00" departDelay="1.10" arrival="65.00" arrivalLane="a3o_0" arrivalPos="178.50" arrivalSpeed="19.30" duration="26.70" routeLength="363.97" waitingTime="0.00" waitingCount="0" stopTime="0.00" timeLoss="7.26" rerouteNo="0" devices="tripinfo_E_R.1 emissions_E_R.1" vType="car" speedFactor="1.02" vaporized="">
        <emissions CO_abs="2709.268907" CO2_abs="163903.627856" HC_abs="16.280190" PMx_abs="3.453044" NOx_abs="70.241744" fuel_abs="70.454504" electricity_abs="0"/>
    </tripinfo>
    <tripinfo id="S_S.6" depart="41.40" departLane="a1i_0" departPos="4.90" departSpeed="0.00" departDelay="0.00" arrival="68.60" arrivalLane="a3o_1" arrivalPos="178.50" arrivalSpeed="17.03" duration="27.20" routeLength="396.73" waitingTime="0.00" waitingCount="0" stopTime="0.00" timeLoss="4.12" rerouteNo="0" devices="tripinfo_S_S.6 emissions_S_S.6" vType="car" speedFactor="0.90" vaporized="">
        <emissions CO_abs="1551.720163" CO2_abs="108600.813717" HC_abs="9.606594" PMx_abs="2.054082" NOx_abs="44.477596" fuel_abs="46.682609" electricity_abs="0"/>
    </tripinfo>
    <tripinfo id="S_S.7" depart="44.80" departLane="a1i_0" departPos="4.90" departSpeed="0.00" departDelay="0.00" arrival="70.60" arrivalLane="a3o_1" arrivalPos="178.50" arrivalSpeed="18.14" duration="25.80" routeLength="396.73" waitingTime="0.00" waitingCount="0" stopTime="0.00" timeLoss="4.04" rerouteNo="0" devices="tripinfo_S_S.7 emissions_S_S.7" vType="car" speedFactor="0.96" vaporized="">
        <emissions CO_abs="1688.994236" CO2_abs="117126.021323" HC_abs="10.455683" PMx_abs="2.293077" NOx_abs="48.371488" fuel_abs="50.347119" electricity_abs="0"/>
    </tripinfo>
    <tripinfo id="S_S.8" depart="47.10" departLane="a1i_0" departPos="4.90" departSpeed="0.00" departDelay="0.50" arrival="71.80" arrivalLane="a3o_1" arrivalPos="178.50" arrivalSpeed="19.91" duration="24.70" routeLength="396.73" waitingTime="0.00" waitingCount="0" stopTime="0.00" timeLoss="4.61" rerouteNo="0" devices="tripinfo_S_S.8 emissions_S_S.8" vType="car" speedFactor="1.09" vaporized="">
        <emissions CO_abs="2099.820218" CO2_abs="135569.768503" HC_abs="12.818006" PMx_abs="2.816610" NOx_abs="57.205798" fuel_abs="58.275107" electricity_abs="0"/>
    </tripinfo>
    <tripinfo id="N_R.2" depart="47.20" departLane="a3i_0" departPos="4.90" departSpeed="0.00" departDelay="0.00" arrival="73.10" arrivalLane="a4o_0" arrivalPos="176.18" arrivalSpeed="19.62" duration="25.90" routeLength="365.95" waitingTime="0.00" waitingCount="0" stopTime="0.00" timeLoss="6.49" rerouteNo="0" devices="tripinfo_N_R.2 emissions_N_R.2" vType="car" speedFactor="1.04" vaporized="">
        <emissions CO_abs="2484.024295" CO2_abs="151576.369606" HC_abs="14.952301" PMx_abs="3.173128" NOx_abs="64.675805" fuel_abs="65.155620" electricity_abs="0"/>
    </tripinfo>
    <tripinfo id="W_S.0" depart="0.00" departLane="a4i_0" departPos="4.90" departSpeed="0.00" departDelay="0.00" arrival="75.30" arrivalLane="a2o_1" arrivalPos="181.00" arrivalSpeed="19.95" duration="75.30" routeLength="395.22" waitingTime="45.20" waitingCount="1" stopTime="0.00" timeLoss="55.27" rerouteNo="0" devices="tripinfo_W_S.0 emissions_W_S.0" vType="car" speedFactor="1.06" vaporized="">
        <emissions CO_abs="10270.579221" CO2_abs="285105.855227" HC_abs="53.552388" PMx_abs="6.461167" NOx_abs="125.368203" fuel_abs="122.557710" electricity_abs="0"/>
    </tripinfo>
    <tripinfo id="W_S.3" depart="14.60" departLane="a4i_0" departPos="4.90" departSpeed="0.00" departDelay="0.00" arrival="75.40" arrivalLane="a2o_3" arrivalPos="181.00" arrivalSpeed="19.85" duration="60.80" routeLength="395.22" waitingTime="30.20" waitingCount="1" stopTime="0.00" timeLoss="40.69" rerouteNo="0" devices="tripinfo_W_S.3 emissions_W_S.3" vType="car" speedFactor="1.05" vaporized="">
        <emissions CO_abs="7942.572519" CO2_abs="250629.863216" HC_abs="42.165317" PMx_abs="5.604033" NOx_abs="109.786676" fuel_abs="107.736788" electricity_abs="0"/>
    </tripinfo>
    <tripinfo id="W_S.1" depart="2.90" departLane="a4i_0" departPos="4.90" departSpeed="0.00" departDelay="0.70" arrival="75.90" arrivalLane="a2o_2" arrivalPos="181.00" arrivalSpeed="19.20" duration="73.00" routeLength="395.22" waitingTime="42.00" waitingCount="1" stopTime="0.00" timeLoss="52.47" rerouteNo="0" devices="tripinfo_W_S.1 emissions_W_S.1" vType="car" speedFactor="1.01" vaporized="">
        <emissions CO_abs="9818.277022" CO2_abs="279362.444686" HC_abs="51.359003" PMx_abs="6.301284" NOx_abs="122.806157" fuel_abs="120.088625" electricity_abs="0"/>
    </tripinfo>
    <tripinfo id="E_S.3" depart="18.20" departLane="a2i_0" departPos="4.90" departSpeed="0.00" departDelay="0.00" arrival="76.10" arrivalLane="a4o_3" arrivalPos="176.18" arrivalSpeed="17.87" duration="57.90" routeLength="395.22" waitingTime="26.10" waitingCount="1" stopTime="0.00" timeLoss="35.94" rerouteNo="0" devices="tripinfo_E_S.3 emissions_E_S.3" vType="car" speedFactor="0.94" vaporized="">
        <emissions CO_abs="6945.983481" CO2_abs="225726.276888" HC_abs="36.967946" PMx_abs="4.918022" NOx_abs="98.006641" fuel_abs="97.031645" electricity_abs="0"/>
    </tripinfo>
    <tripinfo id="E_S.1" depart="11.00" departLane="a2i_0" departPos="4.90" departSpeed="0.00" departDelay="0.00" arrival="76.30" arrivalLane="a4o_2" arrivalPos="176.18" arrivalSpeed="18.28" duration="65.30" routeLength="395.22" waitingTime="33.50" waitingCount="1" stopTime="0.00" timeLoss="45.31" rerouteNo="0" devices="tripinfo_E_S.1 emissions_E_S.1" vType="car" speedFactor="1.09" vaporized="">
        <emissions CO_abs="8323.707564" CO2_abs="253144.974044" HC_abs="43.903836" PMx_abs="5.611799" NOx_abs="110.625424" fuel_abs="108.818264" electricity_abs="0"/>
    </tripinfo>
    <tripinfo id="E_S.0" depart="6.80" departLane="a2i_0" departPos="4.90" departSpeed="0.00" departDelay="0.00" arrival="76.90" arrivalLane="a4o_1" arrivalPos="176.18" arrivalSpeed="19.34" duration="70.10" routeLength="395.22" waitingTime="38.10" waitingCount="1" stopTime="0.00" timeLoss="49.98" rerouteNo="0" devices="tripinfo_E_S.0 emissions_E_S.0" vType="car" speedFactor="1.05" vaporized="">
        <emissions CO_abs="9721.368128" CO2_abs="290665.476910" HC_abs="51.221552" PMx_abs="6.637282" NOx_abs="128.662318" fuel_abs="124.946840" electricity_abs="0"/>
    </tripinfo>
    <tripinfo id="E_S.5" depart="22.80" departLane="a2i_0" departPos="4.90" departSpeed="0.00" departDelay="0.50" arrival="77.20" arrivalLane="a4o_3" arrivalPos="176.18" arrivalSpeed="19.89" duration="54.40" routeLength="395.22" waitingTime="19.30" waitingCount="1" stopTime="0.00" timeLoss="34.52" rerouteNo="0" devices="tripinfo_E_S.5 emissions_E_S.5" vType="car" speedFactor="1.16" vaporized="">
        <emissions CO_abs="5066.414186" CO2_abs="205477.816620" HC_abs="27.971171" PMx_abs="4.431817" NOx_abs="88.940925" fuel_abs="88.326551" electricity_abs="0"/>
    </tripinfo>
    <tripinfo id="E_S.4" depart="20.50" departLane="a2i_0" departPos="4.90" departSpeed="0.00" departDelay="0.20" arrival="77.50" arrivalLane="a4o_2" arrivalPos="176.18" arrivalSpeed="17.68" duration="57.00" routeLength="395.22" waitingTime="21.70" waitingCount="1" stopTime="0.00" timeLoss="34.91" rerouteNo="0" devices="tripinfo_E_S.4 emissions_E_S.4" vType="car" speedFactor="0.94" vaporized="">
        <emissions CO_abs="5337.140923" CO2_abs="199249.806856" HC_abs="29.064904" PMx_abs="4.356419" NOx_abs="86.853667" fuel_abs="85.649635" electricity_abs="0"/>
    </tripinfo>
    <tripinfo id="W_S.6" depart="28.50" departLane="a4i_0" departPos="4.90" departSpeed="0.00" departDelay="1.30" arrival="78.00" arrivalLane="a2o_3" arrivalPos="181.00" arrivalSpeed="16.57" duration="49.50" routeLength="395.22" waitingTime="13.80" waitingCount="1" stopTime="0.00" timeLoss="25.85" rerouteNo="0" devices="tripinfo_W_S.6 emissions_W_S.6" vType="car" speedFactor="0.87" vaporized="">
        <emissions CO_abs="3501.153979" CO2_abs="155499.022015" HC_abs="19.604050" PMx_abs="3.181832" NOx_abs="66.123804" fuel_abs="66.842682" electricity_abs="0"/>
    </tripinfo>
    <tripinfo id="E_S.2" depart="13.90" departLane="a2i_0" departPos="4.90" departSpeed="0.00" departDelay="0.00" arrival="78.10" arrivalLane="a4o_1" arrivalPos="176.18" arrivalSpeed="19.11" duration="64.20" routeLength="395.22" waitingTime="28.50" waitingCount="1" stopTime="0.00" timeLoss="43.83" rerouteNo="0" devices="tripinfo_E_S.2 emissions_E_S.2" vType="car" speedFactor="1.03" vaporized="">
        <emissions CO_abs="6692.491610" CO2_abs="233531.966362" HC_abs="36.046753" PMx_abs="5.144868" NOx_abs="101.933525" fuel_abs="100.386509" electricity_abs="0"/>
    </tripinfo>
    <tripinfo id="W_S.4" depart="23.90" departLane="a4i_0" departPos="4.90" departSpeed="0.00" departDelay="0.00" arrival="78.10" arrivalLane="a2o_2" arrivalPos="181.00" arrivalSpeed="16.99" duration="54.20" routeLength="395.22" waitingTime="18.80" waitingCount="1" stopTime="0.00" timeLoss="33.66" rerouteNo="0" devices="tripinfo_W_S.4 emissions_W_S.4" vType="car" speedFactor="1.01" vaporized="">
        <emissions CO_abs="5481.024306" CO2_abs="227374.083838" HC_abs="30.436403" PMx_abs="5.027798" NOx_abs="99.603062" fuel_abs="97.738535" electricity_abs="0"/>
    </tripinfo>
    <tripinfo id="E_S.8" depart="36.00" departLane="a2i_0" departPos="4.90" departSpeed="0.00" departDelay="0.50" arrival="78.30" arrivalLane="a4o_3" arrivalPos="176.18" arrivalSpeed="18.82" duration="42.30" routeLength="395.22" waitingTime="7.20" waitingCount="1" stopTime="0.00" timeLoss="21.51" rerouteNo="0" devices="tripinfo_E_S.8 emissions_E_S.8" vType="car" speedFactor="0.99" vaporized="">
        <emissions CO_abs="2896.335053" CO2_abs="164397.895033" HC_abs="17.120629" PMx_abs="3.374557" NOx_abs="69.848622" fuel_abs="70.667258" electricity_abs="0"/>
    </tripinfo>
    <tripinfo id="W_S.2" depart="6.60" departLane="a4i_0" departPos="4.90" departSpeed="0.00" departDelay="0.00" arrival="78.60" arrivalLane="a2o_1" arrivalPos="181.00" arrivalSpeed="15.72" duration="72.00" routeLength="395.22" waitingTime="35.60" waitingCount="1" stopTime="0.00" timeLoss="47.12" rerouteNo="0" devices="tripinfo_W_S.2 emissions_W_S.2" vType="car" speedFactor="0.83" vaporized="">
        <emissions CO_abs="6997.450016" CO2_abs="206497.135331" HC_abs="36.741657" PMx_abs="4.480370" NOx_abs="89.766188" fuel_abs="88.766284" electricity_abs="0"/>
    </tripinfo>
    <tripinfo id="E_S.6" depart="27.70" departLane="a2i_0" departPos="4.90" departSpeed="0.00" departDelay="0.00" arrival="78.70" arrivalLane="a4o_2" arrivalPos="176.18" arrivalSpeed="17.36" duration="51.00" routeLength="395.22" waitingTime="15.20" waitingCount="1" stopTime="0.00" timeLoss="28.48" rerouteNo="0" devices="tripinfo_E_S.6 emissions_E_S.6" vType="car" speedFactor="0.92" vaporized="">
        <emissions CO_abs="4101.244656" CO2_abs="175237.658277" HC_abs="22.849402" PMx_abs="3.703965" NOx_abs="75.439798" fuel_abs="75.327458" electricity_abs="0"/>
    </tripinfo>
    <tripinfo id="W_S.8" depart="39.10" departLane="a4i_0" departPos="4.90" departSpeed="0.00" departDelay="0.00" arrival="79.10" arrivalLane="a2o_3" arrivalPos="181.00" arrivalSpeed="18.79" duration="40.00" routeLength="395.22" waitingTime="4.10" waitingCount="1" stopTime="0.00" timeLoss="20.23" rerouteNo="0" devices="tripinfo_W_S.8 emissions_W_S.8" vType="car" speedFactor="1.18" vaporized="">
        <emissions CO_abs="2965.558125" CO2_abs="165141.562161" HC_abs="17.446253" PMx_abs="3.409554" NOx_abs="70.486120" fuel_abs="70.986924" electricity_abs="0"/>
    </tripinfo>
    <tripinfo id="W_S.7" depart="32.50" departLane="a4i_0" departPos="4.90" departSpeed="0.00" departDelay="0.00" arrival="79.20" arrivalLane="a2o_2" arrivalPos="181.00" arrivalSpeed="19.06" duration="46.70" routeLength="395.22" waitingTime="10.80" waitingCount="1" stopTime="0.00" timeLoss="26.87" rerouteNo="0" devices="tripinfo_W_S.7 emissions_W_S.7" vType="car" speedFactor="1.15" vaporized="">
        <emissions CO_abs="4140.526492" CO2_abs="204833.008582" HC_abs="23.793283" PMx_abs="4.439653" NOx_abs="89.130614" fuel_abs="88.048533" electricity_abs="0"/>
    </tripinfo>
    <tripinfo id="E_S.7" depart="30.70" departLane="a2i_0" departPos="4.90" departSpeed="0.00" departDelay="2.70" arrival="79.30" arrivalLane="a4o_1" arrivalPos="176.18" arrivalSpeed="18.70" duration="48.60" routeLength="395.22" waitingTime="12.30" waitingCount="1" stopTime="0.00" timeLoss="28.69" rerouteNo="0" devices="tripinfo_E_S.7 emissions_E_S.7" vType="car" speedFactor="1.13" vaporized="">
        <emissions CO_abs="3954.381267" CO2_abs="185019.216528" HC_abs="22.429612" PMx_abs="3.934076" NOx_abs="79.826389" fuel_abs="79.531787" electricity_abs="0"/>
    </tripinfo>
    <tripinfo id="W_S.5" depart="26.20" departLane="a4i_0" departPos="4.90" departSpeed="0.00" departDelay="1.10" arrival="79.70" arrivalLane="a2o_1" arrivalPos="181.00" arrivalSpeed="18.34" duration="53.50" routeLength="395.22" waitingTime="17.00" waitingCount="1" stopTime="0.00" timeLoss="32.32" rerouteNo="0" devices="tripinfo_W_S.5 emissions_W_S.5" vType="car" speedFactor="0.98" vaporized="">
        <emissions CO_abs="4468.842702" CO2_abs="187765.524154" HC_abs="24.835553" PMx_abs="3.955324" NOx_abs="80.781761" fuel_abs="80.712756" electricity_abs="0"/>
    </tripinfo>
    <tripinfo id="E_S.9" depart="41.30" departLane="a2i_0" departPos="4.90" departSpeed="0.00" departDelay="2.20" arrival="79.80" arrivalLane="a4o_2" arrivalPos="176.18" arrivalSpeed="18.49" duration="38.50" routeLength="395.22" waitingTime="2.40" waitingCount="1" stopTime="0.00" timeLoss="17.28" rerouteNo="0" devices="tripinfo_E_S.9 emissions_E_S.9" vType="car" speedFactor="0.97" vaporized="">
        <emissions CO_abs="2998.266601" CO2_abs="162771.221805" HC_abs="17.528516" PMx_abs="3.363634" NOx_abs="69.486663" fuel_abs="69.968080" electricity_abs="0"/>
    </tripinfo>
    <tripinfo id="N_R.3" depart="51.90" departLane="a3i_0" departPos="4.90" departSpeed="0.00" departDelay="0.00" arrival="80.10" arrivalLane="a4o_0" arrivalPos="176.18" arrivalSpeed="16.63" duration="28.20" routeLength="365.95" waitingTime="0.00" waitingCount="0" stopTime="0.00" timeLoss="5.51" rerouteNo="0" devices="tripinfo_N_R.3 emissions_N_R.3" vType="car" speedFactor="0.88" vaporized="">
        <emissions CO_abs="2051.984811" CO2_abs="128025.333617" HC_abs="12.368566" PMx_abs="2.542819" NOx_abs="53.846949" fuel_abs="55.032281" electricity_abs="0"/>
    </tripinfo>
    <tripinfo id="E_S.10" depart="52.90" departLane="a2i_0" departPos="4.90" departSpeed="0.00" departDelay="0.00" arrival="81.00" arrivalLane="a4o_3" arrivalPos="176.18" arrivalSpeed="16.06" duration="28.10" routeLength="395.22" waitingTime="0.00" waitingCount="0" stopTime="0.00" timeLoss="3.82" rerouteNo="0" devices="tripinfo_E_S.10 emissions_E_S.10" vType="car" speedFactor="0.85" vaporized="">
        <emissions CO_abs="1519.482291" CO2_abs="106394.320553" HC_abs="9.420889" PMx_abs="2.003503" NOx_abs="43.709168" fuel_abs="45.734133" electricity_abs="0"/>
    </tripinfo>
    <tripinfo id="W_S.9" depart="56.30" departLane="a4i_0" departPos="4.90" departSpeed="0.00" departDelay="0.00" arrival="81.20" arrivalLane="a2o_3" arrivalPos="181.00" arrivalSpeed="18.87" duration="24.90" routeLength="395.22" waitingTime="0.00" waitingCount="0" stopTime="0.00" timeLoss="4.21" rerouteNo="0" devices="tripinfo_W_S.9 emissions_W_S.9" vType="car" speedFactor="1.00" vaporized="">
        <emissions CO_abs="1761.827551" CO2_abs="118893.457184" HC_abs="10.845435" PMx_abs="2.378668" NOx_abs="49.395834" fuel_abs="51.106827" electricity_abs="0"/>
    </tripinfo>
    <tripinfo id="N_R.4" depart="56.90" departLane="a3i_0" departPos="4.90" departSpeed="0.00" departDelay="2.30" arrival="83.00" arrivalLane="a4o_0" arrivalPos="176.18" arrivalSpeed="19.97" duration="26.10" routeLength="365.95" waitingTime="0.00" waitingCount="0" stopTime="0.00" timeLoss="6.89" rerouteNo="0" devices="tripinfo_N_R.4 emissions_N_R.4" vType="car" speedFactor="1.10" vaporized="">
        <emissions CO_abs="2740.483367" CO2_abs="166024.981501" HC_abs="16.482038" PMx_abs="3.516101" NOx_abs="71.195220" fuel_abs="71.366352" electricity_abs="0"/>
    </tripinfo>
    <tripinfo id="E_S.11" depart="62.00" departLane="a2i_0" departPos="4.90" departSpeed="0.00" departDelay="0.00" arrival="86.70" arrivalLane="a4o_1" arrivalPos="176.18" arrivalSpeed="19.35" duration="24.70" routeLength="395.22" waitingTime="0.00" waitingCount="0" stopTime="0.00" timeLoss="4.27" rerouteNo="0" devices="tripinfo_E_S.11 emissions_E_S.11" vType="car" speedFactor="1.02" vaporized="">
        <emissions CO_abs="1780.648077" CO2_abs="121168.637825" HC_abs="11.001763" PMx_abs="2.424802" NOx_abs="50.254822" fuel_abs="52.084821" electricity_abs="0"/>
    </tripinfo>
    <tripinfo id="W_S.10" depart="62.10" departLane="a4i_0" departPos="4.90" departSpeed="0.00" departDelay="0.00" arrival="87.50" arrivalLane="a2o_1" arrivalPos="181.00" arrivalSpeed="18.41" duration="25.40" routeLength="395.22" waitingTime="0.00" waitingCount="0" stopTime="0.00" timeLoss="4.13" rerouteNo="0" devices="tripinfo_W_S.10 emissions_W_S.10" vType="car" speedFactor="0.97" vaporized="">
        <emissions CO_abs="1703.440230" CO2_abs="116339.509506" HC_abs="10.495086" PMx_abs="2.295351" NOx_abs="48.154555" fuel_abs="50.009027" electricity_abs="0"/>
    </tripinfo>
    <tripinfo id="S_R.2" depart="61.00" departLane="a1i_0" departPos="4.90" departSpeed="0.00" departDelay="0.00" arrival="87.70" arrivalLane="a2o_0" arrivalPos="181.00" arrivalSpeed="18.85" duration="26.70" routeLength="371.93" waitingTime="0.00" waitingCount="0" stopTime="0.00" timeLoss="7.43" rerouteNo="0" devices="tripinfo_S_R.2 emissions_S_R.2" vType="car" speedFactor="1.14" vaporized="">
        <emissions CO_abs="2703.016504" CO2_abs="164549.208777" HC_abs="16.258081" PMx_abs="3.476471" NOx_abs="70.624337" fuel_abs="70.731973" electricity_abs="0"/>
    </tripinfo>
    <tripinfo id="W_S.11" depart="65.00" departLane="a4i_0" departPos="4.90" departSpeed="0.00" departDelay="0.00" arrival="90.10" arrivalLane="a2o_1" arrivalPos="181.00" arrivalSpeed="18.73" duration="25.10" routeLength="395.22" waitingTime="0.00" waitingCount="0" stopTime="0.00" timeLoss="4.22" rerouteNo="0" devices="tripinfo_W_S.11 emissions_W_S.11" vType="car" speedFactor="0.99" vaporized="">
        <emissions CO_abs="1745.756102" CO2_abs="118283.792288" HC_abs="10.764091" PMx_abs="2.356199" NOx_abs="49.127306" fuel_abs="50.844766" electricity_abs="0"/>
    </tripinfo>
    <tripinfo id="E_S.12" depart="67.60" departLane="a2i_0" departPos="4.90" departSpeed="0.00" departDelay="0.00" arrival="94.20" arrivalLane="a4o_1" arrivalPos="176.18" arrivalSpeed="17.20" duration="26.60" routeLength="395.22" waitingTime="0.00" waitingCount="0" stopTime="0.00" timeLoss="3.86" rerouteNo="0" devices="tripinfo_E_S.12 emissions_E_S.12" vType="car" speedFactor="0.91" vaporized="">
        <emissions CO_abs="1561.077976" CO2_abs="109192.060669" HC_abs="9.670550" PMx_abs="2.090683" NOx_abs="44.893823" fuel_abs="46.936721" electricity_abs="0"/>
    </tripinfo>
    <tripinfo id="W_S.12" depart="67.30" departLane="a4i_0" departPos="4.90" departSpeed="0.00" departDelay="0.00" arrival="94.60" arrivalLane="a2o_1" arrivalPos="181.00" arrivalSpeed="16.69" duration="27.30" routeLength="395.22" waitingTime="0.00" waitingCount="0" stopTime="0.00" timeLoss="3.84" rerouteNo="0" devices="tripinfo_W_S.12 emissions_W_S.12" vType="car" speedFactor="0.88" vaporized="">
        <emissions CO_abs="1528.283676" CO2_abs="108122.031629" HC_abs="9.457683" PMx_abs="2.031039" NOx_abs="44.207483" fuel_abs="46.476802" electricity_abs="0"/>
    </tripinfo>
    <tripinfo id="N_R.5" depart="70.30" departLane="a3i_0" departPos="4.90" departSpeed="0.00" departDelay="0.00" arrival="96.60" arrivalLane="a4o_0" arrivalPos="176.18" arrivalSpeed="19.70" duration="26.30" routeLength="365.95" waitingTime="0.00" waitingCount="0" stopTime="0.00" timeLoss="6.87" rerouteNo="0" devices="tripinfo_N_R.5 emissions_N_R.5" vType="car" speedFactor="1.04" vaporized="">