<?xml version="1.0" encoding="UTF-8"?>

<!-- generated on 12/04/19 10:21:12 by Eclipse SUMO GUI Version 1.3.1
<configuration xmlns:xsi="http://www.w3.org/2001/XMLSchema-instance" xsi:noNamespaceSchemaLocation="http://sumo.dlr.de/xsd/sumoConfiguration.xsd">

    <input>
        <net-file value="../cfg1B/intersection.net.xml"/>
        <route-files value="../cfg1B/intersection.rou.xml"/>
        <additional-files value="../cfg1B/intersection.det.xml"/>
    </input>

    <output>
        <tripinfo-output value="../result/tripinfo77.xml"/>
    </output>

    <time>
        <begin value="0"/>
        <end value="3800"/>
        <step-length value="0.1"/>
    </time>

    <processing>
        <collision.action value="none"/>
    </processing>

    <emissions>
        <device.emissions.probability value="1"/>
    </emissions>

    <traci_server>
        <remote-port value="62487"/>
    </traci_server>

    <gui_only>
        <tracker-interval value="0.1"/>
    </gui_only>

</configuration>
-->

<tripinfos xmlns:xsi="http://www.w3.org/2001/XMLSchema-instance" xsi:noNamespaceSchemaLocation="http://sumo.dlr.de/xsd/tripinfo_file.xsd">
    <tripinfo id="W_S.0" depart="0.00" departLane="a4i_0" departPos="4.90" departSpeed="0.00" departDelay="0.00" arrival="24.20" arrivalLane="a2o_1" arrivalPos="181.00" arrivalSpeed="19.90" duration="24.20" routeLength="395.22" waitingTime="0.00" waitingCount="0" stopTime="0.00" timeLoss="4.19" rerouteNo="0" devices="tripinfo_W_S.0 emissions_W_S.0" vType="car" speedFactor="1.06" vaporized="">
        <emissions CO_abs="1794.387054" CO2_abs="122619.892345" HC_abs="11.081008" PMx_abs="2.458016" NOx_abs="50.779354" fuel_abs="52.708642" electricity_abs="0"/>
    </tripinfo>
    <tripinfo id="W_S.1" depart="2.90" departLane="a4i_0" departPos="4.90" departSpeed="0.00" departDelay="0.70" arrival="31.30" arrivalLane="a2o_1" arrivalPos="181.00" arrivalSpeed="15.74" duration="28.40" routeLength="395.22" waitingTime="0.00" waitingCount="0" stopTime="0.00" timeLoss="3.56" rerouteNo="0" devices="tripinfo_W_S.1 emissions_W_S.1" vType="car" speedFactor="0.83" vaporized="">
        <emissions CO_abs="1429.932422" CO2_abs="101294.813266" HC_abs="8.880569" PMx_abs="1.869253" NOx_abs="41.340810" fuel_abs="43.542130" electricity_abs="0"/>
    </tripinfo>
    <tripinfo id="E_S.1" depart="7.50" departLane="a2i_0" departPos="4.90" departSpeed="0.00" departDelay="0.70" arrival="31.80" arrivalLane="a4o_2" arrivalPos="176.18" arrivalSpeed="20.00" duration="24.30" routeLength="395.22" waitingTime="0.00" waitingCount="0" stopTime="0.00" timeLoss="4.34" rerouteNo="0" devices="tripinfo_E_S.1 emissions_E_S.1" vType="car" speedFactor="1.12" vaporized="">
        <emissions CO_abs="1840.245941" CO2_abs="122879.981971" HC_abs="11.330242" PMx_abs="2.499111" NOx_abs="51.258146" fuel_abs="52.820415" electricity_abs="0"/>
    </tripinfo>
    <tripinfo id="E_S.0" depart="4.70" departLane="a2i_0" departPos="4.90" departSpeed="0.00" departDelay="0.00" arrival="32.50" arrivalLane="a4o_1" arrivalPos="176.18" arrivalSpeed="16.26" duration="27.80" routeLength="395.22" waitingTime="0.00" waitingCount="0" stopTime="0.00" timeLoss="3.67" rerouteNo="0" devices="tripinfo_E_S.0 emissions_E_S.0" vType="car" speedFactor="0.86" vaporized="">
        <emissions CO_abs="1459.737535" CO2_abs="103649.682686" HC_abs="9.059781" PMx_abs="1.928413" NOx_abs="42.327018" fuel_abs="44.554361" electricity_abs="0"/>
    </tripinfo>
    <tripinfo id="W_S.2" depart="6.60" departLane="a4i_0" departPos="4.90" departSpeed="0.00" departDelay="0.00" arrival="32.50" arrivalLane="a2o_1" arrivalPos="181.00" arrivalSpeed="18.64" duration="25.90" routeLength="395.22" waitingTime="0.00" waitingCount="0" stopTime="0.00" timeLoss="5.79" rerouteNo="0" devices="tripinfo_W_S.2 emissions_W_S.2" vType="car" speedFactor="1.05" vaporized="">
        <emissions CO_abs="1805.674107" CO2_abs="118197.560331" HC_abs="11.046219" PMx_abs="2.391071" NOx_abs="49.607070" fuel_abs="50.807668" electricity_abs="0"/>
    </tripinfo>
    <tripinfo id="N_R.0" depart="8.60" departLane="a3i_0" departPos="4.90" departSpeed="0.00" departDelay="0.00" arrival="35.50" arrivalLane="a4o_0" arrivalPos="176.18" arrivalSpeed="17.80" duration="26.90" routeLength="365.95" waitingTime="0.00" waitingCount="0" stopTime="0.00" timeLoss="5.78" rerouteNo="0" devices="tripinfo_N_R.0 emissions_N_R.0" vType="car" speedFactor="0.94" vaporized="">
        <emissions CO_abs="2227.803819" CO2_abs="138106.564595" HC_abs="13.427447" PMx_abs="2.818531" NOx_abs="58.500860" fuel_abs="59.365650" electricity_abs="0"/>
    </tripinfo>
    <tripinfo id="E_S.2" depart="11.00" departLane="a2i_0" departPos="4.90" departSpeed="0.00" departDelay="0.00" arrival="35.90" arrivalLane="a4o_1" arrivalPos="176.18" arrivalSpeed="19.15" duration="24.90" routeLength="395.22" waitingTime="0.00" waitingCount="0" stopTime="0.00" timeLoss="4.35" rerouteNo="0" devices="tripinfo_E_S.2 emissions_E_S.2" vType="car" speedFactor="1.01" vaporized="">
        <emissions CO_abs="1795.547325" CO2_abs="119448.912806" HC_abs="11.039971" PMx_abs="2.406856" NOx_abs="49.796457" fuel_abs="51.345586" electricity_abs="0"/>
    </tripinfo>
    <tripinfo id="W_S.3" depart="14.60" departLane="a4i_0" departPos="4.90" departSpeed="0.00" departDelay="0.00" arrival="41.10" arrivalLane="a2o_1" arrivalPos="181.00" arrivalSpeed="17.33" duration="26.50" routeLength="395.22" waitingTime="0.00" waitingCount="0" stopTime="0.00" timeLoss="3.96" rerouteNo="0" devices="tripinfo_W_S.3 emissions_W_S.3" vType="car" speedFactor="0.92" vaporized="">
        <emissions CO_abs="1571.571829" CO2_abs="112473.880218" HC_abs="9.786486" PMx_abs="2.132723" NOx_abs="45.988278" fuel_abs="48.347438" electricity_abs="0"/>
    </tripinfo>
    <tripinfo id="E_S.3" depart="14.10" departLane="a2i_0" departPos="4.90" departSpeed="0.00" departDelay="0.20" arrival="41.70" arrivalLane="a4o_1" arrivalPos="176.18" arrivalSpeed="16.48" duration="27.60" routeLength="395.22" waitingTime="0.00" waitingCount="0" stopTime="0.00" timeLoss="3.90" rerouteNo="0" devices="tripinfo_E_S.3 emissions_E_S.3" vType="car" speedFactor="0.87" vaporized="">
        <emissions CO_abs="1476.418271" CO2_abs="104931.268249" HC_abs="9.124845" PMx_abs="1.944842" NOx_abs="42.742430" fuel_abs="45.105266" electricity_abs="0"/>
    </tripinfo>
    <tripinfo id="S_R.0" depart="15.20" departLane="a1i_0" departPos="4.90" departSpeed="0.00" departDelay="0.00" arrival="42.20" arrivalLane="a2o_0" arrivalPos="181.00" arrivalSpeed="19.87" duration="27.00" routeLength="371.93" waitingTime="0.00" waitingCount="0" stopTime="0.00" timeLoss="7.67" rerouteNo="0" devices="tripinfo_S_R.0 emissions_S_R.0" vType="car" speedFactor="1.13" vaporized="">
        <emissions CO_abs="2761.354136" CO2_abs="170491.510345" HC_abs="16.676118" PMx_abs="3.584448" NOx_abs="73.020227" fuel_abs="73.286289" electricity_abs="0"/>
    </tripinfo>
    <tripinfo id="E_S.4" depart="18.20" departLane="a2i_0" departPos="4.90" departSpeed="0.00" departDelay="0.00" arrival="43.30" arrivalLane="a4o_1" arrivalPos="176.18" arrivalSpeed="18.84" duration="25.10" routeLength="395.22" waitingTime="0.00" waitingCount="0" stopTime="0.00" timeLoss="4.34" rerouteNo="0" devices="tripinfo_E_S.4 emissions_E_S.4" vType="car" speedFactor="0.99" vaporized="">
        <emissions CO_abs="1763.951890" CO2_abs="120712.524476" HC_abs="10.878264" PMx_abs="2.389132" NOx_abs="49.918165" fuel_abs="51.888782" electricity_abs="0"/>
    </tripinfo>
    <tripinfo id="W_R.0" depart="16.90" departLane="a4i_0" departPos="4.90" departSpeed="0.00" departDelay="1.60" arrival="44.20" arrivalLane="a1o_0" arrivalPos="174.27" arrivalSpeed="17.66" duration="27.30" routeLength="355.03" waitingTime="0.00" waitingCount="0" stopTime="0.00" timeLoss="6.65" rerouteNo="0" devices="tripinfo_W_R.0 emissions_W_R.0" vType="car" speedFactor="0.93" vaporized="">
        <emissions CO_abs="2244.681979" CO2_abs="135482.490607" HC_abs="13.430392" PMx_abs="2.748220" NOx_abs="57.364567" fuel_abs="58.237748" electricity_abs="0"/>
    </tripinfo>
    <tripinfo id="E_S.5" depart="21.40" departLane="a2i_0" departPos="4.90" departSpeed="0.00" departDelay="1.10" arrival="45.50" arrivalLane="a4o_1" arrivalPos="176.18" arrivalSpeed="19.94" duration="24.10" routeLength="395.22" waitingTime="0.00" waitingCount="0" stopTime="0.00" timeLoss="4.16" rerouteNo="0" devices="tripinfo_E_S.5 emissions_E_S.5" vType="car" speedFactor="1.10" vaporized="">
        <emissions CO_abs="1756.736398" CO2_abs="118597.974330" HC_abs="10.833840" PMx_abs="2.386607" NOx_abs="49.177344" fuel_abs="50.979812" electricity_abs="0"/>
    </tripinfo>
    <tripinfo id="W_S.4" depart="23.90" departLane="a4i_0" departPos="4.90" departSpeed="0.00" departDelay="0.00" arrival="48.40" arrivalLane="a2o_1" arrivalPos="181.00" arrivalSpeed="19.61" duration="24.50" routeLength="395.22" waitingTime="0.00" waitingCount="0" stopTime="0.00" timeLoss="4.25" rerouteNo="0" devices="tripinfo_W_S.4 emissions_W_S.4" vType="car" speedFactor="1.04" vaporized="">
        <emissions CO_abs="1807.999641" CO2_abs="120439.302599" HC_abs="11.103318" PMx_abs="2.436840" NOx_abs="50.184563" fuel_abs="51.771297" electricity_abs="0"/>
    </tripinfo>
    <tripinfo id="N_R.1" depart="22.80" departLane="a3i_0" departPos="4.90" departSpeed="0.00" departDelay="0.00" arrival="48.90" arrivalLane="a4o_0" arrivalPos="176.18" arrivalSpeed="19.99" duration="26.10" routeLength="365.95" waitingTime="0.00" waitingCount="0" stopTime="0.00" timeLoss="6.84" rerouteNo="0" devices="tripinfo_N_R.1 emissions_N_R.1" vType="car" speedFactor="1.09" vaporized="">
        <emissions CO_abs="2722.298549" CO2_abs="164233.765693" HC_abs="16.358414" PMx_abs="3.480851" NOx_abs="70.463184" fuel_abs="70.596396" electricity_abs="0"/>
    </tripinfo>
    <tripinfo id="E_S.6" depart="24.20" departLane="a2i_0" departPos="4.90" departSpeed="0.00" departDelay="1.90" arrival="49.90" arrivalLane="a4o_1" arrivalPos="176.18" arrivalSpeed="18.18" duration="25.70" routeLength="395.22" waitingTime="0.00" waitingCount="0" stopTime="0.00" timeLoss="4.09" rerouteNo="0" devices="tripinfo_E_S.6 emissions_E_S.6" vType="car" speedFactor="0.96" vaporized="">
        <emissions CO_abs="1652.209564" CO2_abs="116155.563011" HC_abs="10.256247" PMx_abs="2.253927" NOx_abs="47.759346" fuel_abs="49.929982" electricity_abs="0"/>
    </tripinfo>
    <tripinfo id="E_S.7" depart="27.70" departLane="a2i_0" departPos="4.90" departSpeed="0.00" departDelay="0.00" arrival="52.40" arrivalLane="a4o_1" arrivalPos="176.18" arrivalSpeed="18.96" duration="24.70" routeLength="395.22" waitingTime="0.00" waitingCount="0" stopTime="0.00" timeLoss="4.12" rerouteNo="0" devices="tripinfo_E_S.7 emissions_E_S.7" vType="car" speedFactor="1.00" vaporized="">
        <emissions CO_abs="1764.189244" CO2_abs="121213.659252" HC_abs="10.897118" PMx_abs="2.415666" NOx_abs="50.196932" fuel_abs="52.104170" electricity_abs="0"/>
    </tripinfo>
    <tripinfo id="W_S.5" depart="26.70" departLane="a4i_0" departPos="4.90" departSpeed="0.00" departDelay="1.60" arrival="53.50" arrivalLane="a2o_1" arrivalPos="181.00" arrivalSpeed="17.04" duration="26.80" routeLength="395.22" waitingTime="0.00" waitingCount="0" stopTime="0.00" timeLoss="3.91" rerouteNo="0" devices="tripinfo_W_S.5 emissions_W_S.5" vType="car" speedFactor="0.90" vaporized="">
        <emissions CO_abs="1530.942254" CO2_abs="108270.876075" HC_abs="9.509813" PMx_abs="2.050010" NOx_abs="44.322131" fuel_abs="46.540771" electricity_abs="0"/>
    </tripinfo>
    <tripinfo id="W_S.6" depart="29.10" departLane="a4i_0" departPos="4.90" departSpeed="0.00" departDelay="1.90" arrival="54.70" arrivalLane="a2o_1" arrivalPos="181.00" arrivalSpeed="19.91" duration="25.60" routeLength="395.22" waitingTime="0.00" waitingCount="0" stopTime="0.00" timeLoss="5.63" rerouteNo="0" devices="tripinfo_W_S.6 emissions_W_S.6" vType="car" speedFactor="1.10" vaporized="">
        <emissions CO_abs="1895.171957" CO2_abs="122830.902360" HC_abs="11.569608" PMx_abs="2.507568" NOx_abs="51.649084" fuel_abs="52.799314" electricity_abs="0"/>
    </tripinfo>
    <tripinfo id="E_S.8" depart="30.10" departLane="a2i_0" departPos="4.90" departSpeed="0.00" departDelay="2.10" arrival="56.90" arrivalLane="a4o_1" arrivalPos="176.18" arrivalSpeed="17.03" duration="26.80" routeLength="395.22" waitingTime="0.00" waitingCount="0" stopTime="0.00" timeLoss="3.81" rerouteNo="0" devices="tripinfo_E_S.8 emissions_E_S.8" vType="car" speedFactor="0.90" vaporized="">
        <emissions CO_abs="1515.730072" CO2_abs="109163.221692" HC_abs="9.458777" PMx_abs="2.054369" NOx_abs="44.565818" fuel_abs="46.924349" electricity_abs="0"/>
    </tripinfo>
    <tripinfo id="W_S.7" depart="32.50" departLane="a4i_0" departPos="4.90" departSpeed="0.00" departDelay="0.00" arrival="59.00" arrivalLane="a2o_1" arrivalPos="181.00" arrivalSpeed="17.32" duration="26.50" routeLength="395.22" waitingTime="0.00" waitingCount="0" stopTime="0.00" timeLoss="3.87" rerouteNo="0" devices="tripinfo_W_S.7 emissions_W_S.7" vType="car" speedFactor="0.91" vaporized="">
        <emissions CO_abs="1582.441213" CO2_abs="110208.909494" HC_abs="9.780830" PMx_abs="2.118199" NOx_abs="45.337127" fuel_abs="47.373812" electricity_abs="0"/>
    </tripinfo>
    <tripinfo id="E_R.0" depart="33.70" departLane="a2i_0" departPos="4.90" departSpeed="0.00" departDelay="0.00" arrival="59.80" arrivalLane="a3o_0" arrivalPos="178.50" arrivalSpeed="19.65" duration="26.10" routeLength="363.97" waitingTime="0.00" waitingCount="0" stopTime="0.00" timeLoss="6.87" rerouteNo="0" devices="tripinfo_E_R.0 emissions_E_R.0" vType="car" speedFactor="1.04" vaporized="">
        <emissions CO_abs="2512.077783" CO2_abs="152479.911827" HC_abs="15.104720" PMx_abs="3.189048" NOx_abs="65.048356" fuel_abs="65.544026" electricity_abs="0"/>
    </tripinfo>
    <tripinfo id="S_R.1" depart="32.90" departLane="a1i_0" departPos="4.90" departSpeed="0.00" departDelay="1.90" arrival="60.80" arrivalLane="a2o_0" arrivalPos="181.00" arrivalSpeed="16.66" duration="27.90" routeLength="371.93" waitingTime="0.00" waitingCount="0" stopTime="0.00" timeLoss="5.25" rerouteNo="0" devices="tripinfo_S_R.1 emissions_S_R.1" vType="car" speedFactor="0.88" vaporized="">
        <emissions CO_abs="2347.809085" CO2_abs="146856.005430" HC_abs="14.184322" PMx_abs="2.991219" NOx_abs="62.305574" fuel_abs="63.126609" electricity_abs="0"/>
    </tripinfo>
    <tripinfo id="E_R.1" depart="38.40" departLane="a2i_0" departPos="4.90" departSpeed="0.00" departDelay="1.20" arrival="64.70" arrivalLane="a3o_0" arrivalPos="178.50" arrivalSpeed="19.91" duration="26.30" routeLength="363.97" waitingTime="0.00" waitingCount="0" stopTime="0.00" timeLoss="7.23" rerouteNo="0" devices="tripinfo_E_R.1 emissions_E_R.1" vType="car" speedFactor="1.06" vaporized="">
        <emissions CO_abs="2683.397483" CO2_abs="162342.993102" HC_abs="16.134311" PMx_abs="3.421894" NOx_abs="69.478023" fuel_abs="69.783670" electricity_abs="0"/>
    </tripinfo>
    <tripinfo id="W_L.0" depart="2.30" departLane="a4i_0" departPos="4.90" departSpeed="0.00" departDelay="1.10" arrival="65.30" arrivalLane="a3o_2" arrivalPos="178.50" arrivalSpeed="19.18" duration="63.00" routeLength="392.39" waitingTime="30.70" waitingCount="1" stopTime="0.00" timeLoss="41.97" rerouteNo="0" devices="tripinfo_W_L.0 emissions_W_L.0" vType="car" speedFactor="1.01" vaporized="">
        <emissions CO_abs="8122.336396" CO2_abs="257395.355911" HC_abs="43.121952" PMx_abs="5.708246" NOx_abs="112.504919" fuel_abs="110.645064" electricity_abs="0"/>
    </tripinfo>
    <tripinfo id="E_L.0" depart="0.50" departLane="a2i_0" departPos="4.90" departSpeed="0.00" departDelay="0.00" arrival="65.70" arrivalLane="a1o_2" arrivalPos="174.27" arrivalSpeed="17.74" duration="65.20" routeLength="393.74" waitingTime="32.20" waitingCount="1" stopTime="0.00" timeLoss="42.91" rerouteNo="0" devices="tripinfo_E_L.0 emissions_E_L.0" vType="car" speedFactor="0.94" vaporized="">
        <emissions CO_abs="8096.613563" CO2_abs="245301.404828" HC_abs="42.680096" PMx_abs="5.412007" NOx_abs="107.169790" fuel_abs="105.446637" electricity_abs="0"/>
    </tripinfo>
    <tripinfo id="E_L.1" depart="2.50" departLane="a2i_0" departPos="4.90" departSpeed="0.00" departDelay="0.00" arrival="66.90" arrivalLane="a1o_2" arrivalPos="174.27" arrivalSpeed="19.76" duration="64.40" routeLength="393.74" waitingTime="27.80" waitingCount="1" stopTime="0.00" timeLoss="44.05" rerouteNo="0" devices="tripinfo_E_L.1 emissions_E_L.1" vType="car" speedFactor="1.05" vaporized="">
        <emissions CO_abs="6752.069496" CO2_abs="236431.796968" HC_abs="36.388639" PMx_abs="5.223223" NOx_abs="103.433870" fuel_abs="101.632979" electricity_abs="0"/>
    </tripinfo>
    <tripinfo id="W_L.1" depart="8.90" departLane="a4i_0" departPos="4.90" departSpeed="0.00" departDelay="1.30" arrival="67.60" arrivalLane="a3o_2" arrivalPos="178.50" arrivalSpeed="17.51" duration="58.70" routeLength="392.39" waitingTime="21.50" waitingCount="1" stopTime="0.00" timeLoss="35.84" rerouteNo="0" devices="tripinfo_W_L.1 emissions_W_L.1" vType="car" speedFactor="0.93" vaporized="">
        <emissions CO_abs="5273.126629" CO2_abs="196748.190826" HC_abs="28.689586" PMx_abs="4.222567" NOx_abs="85.288572" fuel_abs="84.574407" electricity_abs="0"/>
    </tripinfo>
    <tripinfo id="W_L.2" depart="26.20" departLane="a4i_0" departPos="4.90" departSpeed="0.00" departDelay="1.80" arrival="68.90" arrivalLane="a3o_2" arrivalPos="178.50" arrivalSpeed="18.91" duration="42.70" routeLength="392.39" waitingTime="5.00" waitingCount="1" stopTime="0.00" timeLoss="21.46" rerouteNo="0" devices="tripinfo_W_L.2 emissions_W_L.2" vType="car" speedFactor="1.00" vaporized="">
        <emissions CO_abs="3363.258753" CO2_abs="178914.897752" HC_abs="19.613922" PMx_abs="3.752324" NOx_abs="76.912841" fuel_abs="76.907487" electricity_abs="0"/>
    </tripinfo>
    <tripinfo id="E_L.2" depart="4.10" departLane="a2i_0" departPos="4.90" departSpeed="0.00" departDelay="0.00" arrival="69.10" arrivalLane="a1o_2" arrivalPos="174.27" arrivalSpeed="17.71" duration="65.00" routeLength="393.74" waitingTime="26.10" waitingCount="1" stopTime="0.00" timeLoss="42.70" rerouteNo="0" devices="tripinfo_E_L.2 emissions_E_L.2" vType="car" speedFactor="0.94" vaporized="">
        <emissions CO_abs="6084.273987" CO2_abs="211383.630906" HC_abs="32.700724" PMx_abs="4.574077" NOx_abs="91.891260" fuel_abs="90.865909" electricity_abs="0"/>
    </tripinfo>
    <tripinfo id="W_L.3" depart="31.40" departLane="a4i_0" departPos="4.90" departSpeed="0.00" departDelay="2.70" arrival="70.20" arrivalLane="a3o_2" arrivalPos="178.50" arrivalSpeed="19.97" duration="38.80" routeLength="392.39" waitingTime="0.50" waitingCount="1" stopTime="0.00" timeLoss="18.36" rerouteNo="0" devices="tripinfo_W_L.3 emissions_W_L.3" vType="car" speedFactor="1.08" vaporized="">
        <emissions CO_abs="3510.555637" CO2_abs="185763.606459" HC_abs="20.452662" PMx_abs="3.918691" NOx_abs="79.964786" fuel_abs="79.851424" electricity_abs="0"/>
    </tripinfo>
    <tripinfo id="E_L.3" depart="7.00" departLane="a2i_0" departPos="4.90" departSpeed="0.00" departDelay="2.00" arrival="70.30" arrivalLane="a1o_2" arrivalPos="174.27" arrivalSpeed="19.89" duration="63.30" routeLength="393.74" waitingTime="24.10" waitingCount="1" stopTime="0.00" timeLoss="43.12" rerouteNo="0" devices="tripinfo_E_L.3 emissions_E_L.3" vType="car" speedFactor="1.09" vaporized="">
        <emissions CO_abs="6158.616511" CO2_abs="224598.251816" HC_abs="33.399010" PMx_abs="4.907011" NOx_abs="98.007220" fuel_abs="96.546045" electricity_abs="0"/>
    </tripinfo>
    <tripinfo id="W_L.4" depart="41.40" departLane="a4i_0" departPos="4.90" departSpeed="0.00" departDelay="1.60" arrival="72.30" arrivalLane="a3o_2" arrivalPos="178.50" arrivalSpeed="18.55" duration="30.90" routeLength="392.39" waitingTime="0.00" waitingCount="0" stopTime="0.00" timeLoss="9.41" rerouteNo="0" devices="tripinfo_W_L.4 emissions_W_L.4" vType="car" speedFactor="0.98" vaporized="">
        <emissions CO_abs="2542.418960" CO2_abs="150872.124937" HC_abs="15.186321" PMx_abs="3.108258" NOx_abs="64.388970" fuel_abs="64.852999" electricity_abs="0"/>
    </tripinfo>
    <tripinfo id="E_L.4" depart="9.80" departLane="a2i_0" departPos="4.90" departSpeed="0.00" departDelay="1.90" arrival="72.90" arrivalLane="a1o_2" arrivalPos="174.27" arrivalSpeed="16.58" duration="63.10" routeLength="393.74" waitingTime="22.00" waitingCount="1" stopTime="0.00" timeLoss="39.35" rerouteNo="0" devices="tripinfo_E_L.4 emissions_E_L.4" vType="car" speedFactor="0.88" vaporized="">
        <emissions CO_abs="5319.541572" CO2_abs="189765.539270" HC_abs="28.688480" PMx_abs="4.024497" NOx_abs="82.118338" fuel_abs="81.573087" electricity_abs="0"/>
    </tripinfo>
    <tripinfo id="N_R.2" depart="47.20" departLane="a3i_0" departPos="4.90" departSpeed="0.00" departDelay="0.00" arrival="73.90" arrivalLane="a4o_0" arrivalPos="176.18" arrivalSpeed="18.96" duration="26.70" routeLength="365.95" waitingTime="0.00" waitingCount="0" stopTime="0.00" timeLoss="6.82" rerouteNo="0" devices="tripinfo_N_R.2 emissions_N_R.2" vType="car" speedFactor="1.00" vaporized="">
        <emissions CO_abs="2727.445162" CO2_abs="164934.275582" HC_abs="16.392691" PMx_abs="3.485188" NOx_abs="70.796320" fuel_abs="70.897512" electricity_abs="0"/>
    </tripinfo>
    <tripinfo id="E_L.5" depart="10.30" departLane="a2i_0" departPos="4.90" departSpeed="0.00" departDelay="0.80" arrival="74.10" arrivalLane="a1o_2" arrivalPos="174.27" arrivalSpeed="19.91" duration="63.80" routeLength="393.74" waitingTime="20.50" waitingCount="1" stopTime="0.00" timeLoss="43.79" rerouteNo="0" devices="tripinfo_E_L.5 emissions_E_L.5" vType="car" speedFactor="1.16" vaporized="">
        <emissions CO_abs="5627.439662" CO2_abs="211275.752635" HC_abs="30.666458" PMx_abs="4.541562" NOx_abs="91.882682" fuel_abs="90.819178" electricity_abs="0"/>
    </tripinfo>
    <tripinfo id="E_L.6" depart="13.30" departLane="a2i_0" departPos="4.90" departSpeed="0.00" departDelay="1.70" arrival="75.50" arrivalLane="a1o_2" arrivalPos="174.27" arrivalSpeed="18.48" duration="62.20" routeLength="393.74" waitingTime="19.20" waitingCount="1" stopTime="0.00" timeLoss="40.81" rerouteNo="0" devices="tripinfo_E_L.6 emissions_E_L.6" vType="car" speedFactor="0.98" vaporized="">
        <emissions CO_abs="5063.371500" CO2_abs="191557.594054" HC_abs="27.599138" PMx_abs="4.055596" NOx_abs="82.833601" fuel_abs="82.343179" electricity_abs="0"/>
    </tripinfo>
    <tripinfo id="W_L.5" depart="48.90" departLane="a4i_0" departPos="4.90" departSpeed="0.00" departDelay="1.00" arrival="76.50" arrivalLane="a3o_2" arrivalPos="178.50" arrivalSpeed="19.10" duration="27.60" routeLength="392.39" waitingTime="0.00" waitingCount="0" stopTime="0.00" timeLoss="6.50" rerouteNo="0" devices="tripinfo_W_L.5 emissions_W_L.5" vType="car" speedFactor="1.01" vaporized="">
        <emissions CO_abs="2452.611587" CO2_abs="152195.227113" HC_abs="14.816837" PMx_abs="3.155878" NOx_abs="64.704053" fuel_abs="65.421652" electricity_abs="0"/>
    </tripinfo>
    <tripinfo id="E_L.7" depart="13.70" departLane="a2i_0" departPos="4.90" departSpeed="0.00" departDelay="1.90" arrival="77.90" arrivalLane="a1o_2" arrivalPos="174.27" arrivalSpeed="16.88" duration="64.20" routeLength="393.74" waitingTime="18.00" waitingCount="1" stopTime="0.00" timeLoss="40.76" rerouteNo="0" devices="tripinfo_E_L.7 emissions_E_L.7" vType="car" speedFactor="0.89" vaporized="">
        <emissions CO_abs="4765.239105" CO2_abs="178814.492405" HC_abs="25.894558" PMx_abs="3.699471" NOx_abs="76.856347" fuel_abs="76.865565" electricity_abs="0"/>
    </tripinfo>
    <tripinfo id="E_L.8" depart="16.40" departLane="a2i_0" departPos="4.90" departSpeed="0.00" departDelay="1.60" arrival="79.20" arrivalLane="a1o_2" arrivalPos="174.27" arrivalSpeed="17.94" duration="62.80" routeLength="393.74" waitingTime="16.90" waitingCount="1" stopTime="0.00" timeLoss="40.80" rerouteNo="0" devices="tripinfo_E_L.8 emissions_E_L.8" vType="car" speedFactor="0.95" vaporized="">
        <emissions CO_abs="4592.256170" CO2_abs="178836.946200" HC_abs="25.150774" PMx_abs="3.720072" NOx_abs="76.983650" fuel_abs="76.875045" electricity_abs="0"/>
    </tripinfo>
    <tripinfo id="E_L.9" depart="16.80" departLane="a2i_0" departPos="4.90" departSpeed="0.00" departDelay="0.80" arrival="80.50" arrivalLane="a1o_2" arrivalPos="174.27" arrivalSpeed="19.93" duration="63.70" routeLength="393.74" waitingTime="15.90" waitingCount="1" stopTime="0.00" timeLoss="43.66" rerouteNo="0" devices="tripinfo_E_L.9 emissions_E_L.9" vType="car" speedFactor="1.18" vaporized="">
        <emissions CO_abs="4780.387435" CO2_abs="189256.600244" HC_abs="26.264495" PMx_abs="3.965174" NOx_abs="81.657671" fuel_abs="81.353938" electricity_abs="0"/>
    </tripinfo>
    <tripinfo id="W_L.6" depart="53.90" departLane="a4i_0" departPos="4.90" departSpeed="0.00" departDelay="0.00" arrival="80.80" arrivalLane="a3o_2" arrivalPos="178.50" arrivalSpeed="19.91" duration="26.90" routeLength="392.39" waitingTime="0.00" waitingCount="0" stopTime="0.00" timeLoss="6.47" rerouteNo="0" devices="tripinfo_W_L.6 emissions_W_L.6" vType="car" speedFactor="1.10" vaporized="">
        <emissions CO_abs="2522.116662" CO2_abs="157411.683399" HC_abs="15.275996" PMx_abs="3.291493" NOx_abs="66.998872" fuel_abs="67.663922" electricity_abs="0"/>
    </tripinfo>
    <tripinfo id="N_R.3" depart="54.10" departLane="a3i_0" departPos="4.90" departSpeed="0.00" departDelay="2.20" arrival="81.80" arrivalLane="a4o_0" arrivalPos="176.18" arrivalSpeed="17.39" duration="27.70" routeLength="365.95" waitingTime="0.00" waitingCount="0" stopTime="0.00" timeLoss="6.20" rerouteNo="0" devices="tripinfo_N_R.3 emissions_N_R.3" vType="car" speedFactor="0.92" vaporized="">
        <emissions CO_abs="2514.329122" CO2_abs="153975.410045" HC_abs="15.114979" PMx_abs="3.173341" NOx_abs="65.604359" fuel_abs="66.186896" electricity_abs="0"/>
    </tripinfo>
    <tripinfo id="E_L.10" depart="20.50" departLane="a2i_0" departPos="4.90" departSpeed="0.00" departDelay="1.70" arrival="82.10" arrivalLane="a1o_2" arrivalPos="174.27" arrivalSpeed="19.37" duration="61.60" routeLength="393.74" waitingTime="14.90" waitingCount="1" stopTime="0.00" timeLoss="40.90" rerouteNo="0" devices="tripinfo_E_L.10 emissions_E_L.10" vType="car" speedFactor="1.02" vaporized="">
        <emissions CO_abs="4394.804894" CO2_abs="179402.401266" HC_abs="24.260962" PMx_abs="3.703679" NOx_abs="76.980117" fuel_abs="77.117980" electricity_abs="0"/>
    </tripinfo>
    <tripinfo id="E_L.11" depart="20.80" departLane="a2i_0" departPos="4.90" departSpeed="0.00" departDelay="1.60" arrival="84.10" arrivalLane="a1o_2" arrivalPos="174.27" arrivalSpeed="18.42" duration="63.30" routeLength="393.74" waitingTime="14.00" waitingCount="1" stopTime="0.00" timeLoss="41.84" rerouteNo="0" devices="tripinfo_E_L.11 emissions_E_L.11" vType="car" speedFactor="0.97" vaporized="">
        <emissions CO_abs="4172.772369" CO2_abs="169860.622468" HC_abs="23.001627" PMx_abs="3.434908" NOx_abs="72.457616" fuel_abs="73.016462" electricity_abs="0"/>
    </tripinfo>
    <tripinfo id="E_L.12" depart="21.10" departLane="a2i_0" departPos="4.90" departSpeed="0.00" departDelay="1.60" arrival="85.40" arrivalLane="a1o_2" arrivalPos="174.27" arrivalSpeed="19.88" duration="64.30" routeLength="393.74" waitingTime="13.10" waitingCount="2" stopTime="0.00" timeLoss="44.28" rerouteNo="0" devices="tripinfo_E_L.12 emissions_E_L.12" vType="car" speedFactor="1.18" vaporized="">
        <emissions CO_abs="4313.269508" CO2_abs="175511.472933" HC_abs="23.807392" PMx_abs="3.624472" NOx_abs="75.468832" fuel_abs="75.445420" electricity_abs="0"/>
    </tripinfo>
    <tripinfo id="S_R.2" depart="61.00" departLane="a1i_0" departPos="4.90" departSpeed="0.00" departDelay="0.00" arrival="87.80" arrivalLane="a2o_0" arrivalPos="181.00" arrivalSpeed="19.57" duration="26.80" routeLength="371.93" waitingTime="0.00" waitingCount="0" stopTime="0.00" timeLoss="7.10" rerouteNo="0" devices="tripinfo_S_R.2 emissions_S_R.2" vType="car" speedFactor="1.03" vaporized="">
        <emissions CO_abs="2825.702344" CO2_abs="172153.043509" HC_abs="17.014829" PMx_abs="3.649046" NOx_abs="73.911170" fuel_abs="74.000492" electricity_abs="0"/>
    </tripinfo>
    <tripinfo id="E_L.13" depart="23.80" departLane="a2i_0" departPos="4.90" departSpeed="0.00" departDelay="1.90" arrival="88.10" arrivalLane="a1o_2" arrivalPos="174.27" arrivalSpeed="17.10" duration="64.30" routeLength="393.74" waitingTime="12.20" waitingCount="1" stopTime="0.00" timeLoss="41.08" rerouteNo="0" devices="tripinfo_E_L.13 emissions_E_L.13" vType="car" speedFactor="0.90" vaporized="">
        <emissions CO_abs="3738.391553" CO2_abs="153245.177377" HC_abs="20.607613" PMx_abs="3.028959" NOx_abs="65.037155" fuel_abs="65.874200" electricity_abs="0"/>
    </tripinfo>
    <tripinfo id="E_L.14" depart="24.00" departLane="a2i_0" departPos="4.90" departSpeed="0.00" departDelay="1.90" arrival="89.30" arrivalLane="a1o_2" arrivalPos="174.27" arrivalSpeed="19.57" duration="65.30" routeLength="393.74" waitingTime="11.40" waitingCount="1" stopTime="0.00" timeLoss="44.75" rerouteNo="0" devices="tripinfo_E_L.14 emissions_E_L.14" vType="car" speedFactor="1.03" vaporized="">
        <emissions CO_abs="4085.160017" CO2_abs="167435.400498" HC_abs="22.557364" PMx_abs="3.395334" NOx_abs="71.612015" fuel_abs="71.973904" electricity_abs="0"/>
    </tripinfo>
    <tripinfo id="E_L.15" depart="27.00" departLane="a2i_0" departPos="4.90" departSpeed="0.00" departDelay="0.00" arrival="90.50" arrivalLane="a1o_2" arrivalPos="174.27" arrivalSpeed="19.92" duration="63.50" routeLength="393.74" waitingTime="10.60" waitingCount="1" stopTime="0.00" timeLoss="43.52" rerouteNo="0" devices="tripinfo_E_L.15 emissions_E_L.15" vType="car" speedFactor="1.17" vaporized="">