<?xml version="1.0" encoding="UTF-8"?>

<!-- generated on 11/26/19 11:47:52 by Eclipse SUMO GUI Version 1.3.1
<configuration xmlns:xsi="http://www.w3.org/2001/XMLSchema-instance" xsi:noNamespaceSchemaLocation="http://sumo.dlr.de/xsd/sumoConfiguration.xsd">

    <input>
        <net-file value="../cfg1/intersection.net.xml"/>
        <route-files value="../cfg1/intersection.rou.xml"/>
        <additional-files value="../cfg1/intersection.det.xml"/>
    </input>

    <output>
        <tripinfo-output value="../result/tripinfoB.xml"/>
    </output>

    <time>
        <begin value="0"/>
        <end value="3800"/>
        <step-length value="0.1"/>
    </time>

    <processing>
        <collision.action value="none"/>
    </processing>

    <emissions>
        <device.emissions.probability value="1"/>
    </emissions>

    <traci_server>
        <remote-port value="54493"/>
    </traci_server>

    <gui_only>
        <tracker-interval value="0.1"/>
    </gui_only>

</configuration>
-->

<tripinfos xmlns:xsi="http://www.w3.org/2001/XMLSchema-instance" xsi:noNamespaceSchemaLocation="http://sumo.dlr.de/xsd/tripinfo_file.xsd">
    <tripinfo id="W_S.0" depart="0.00" departLane="a4i_0" departPos="4.90" departSpeed="0.00" departDelay="0.00" arrival="24.20" arrivalLane="a2o_1" arrivalPos="181.00" arrivalSpeed="19.90" duration="24.20" routeLength="395.22" waitingTime="0.00" waitingCount="0" stopTime="0.00" timeLoss="4.17" rerouteNo="0" devices="tripinfo_W_S.0 emissions_W_S.0" vType="car" speedFactor="1.06" vaporized="">
        <emissions CO_abs="1801.019753" CO2_abs="121549.364186" HC_abs="11.089648" PMx_abs="2.450219" NOx_abs="50.485328" fuel_abs="52.248464" electricity_abs="0"/>
    </tripinfo>
    <tripinfo id="W_S.1" depart="2.90" departLane="a4i_0" departPos="4.90" departSpeed="0.00" departDelay="0.70" arrival="27.50" arrivalLane="a2o_1" arrivalPos="181.00" arrivalSpeed="19.46" duration="24.60" routeLength="395.22" waitingTime="0.00" waitingCount="0" stopTime="0.00" timeLoss="4.34" rerouteNo="0" devices="tripinfo_W_S.1 emissions_W_S.1" vType="car" speedFactor="1.03" vaporized="">
        <emissions CO_abs="1785.132188" CO2_abs="122719.970143" HC_abs="11.048084" PMx_abs="2.442174" NOx_abs="50.736855" fuel_abs="52.751678" electricity_abs="0"/>
    </tripinfo>
    <tripinfo id="E_S.0" depart="4.00" departLane="a2i_0" departPos="4.90" departSpeed="0.00" departDelay="2.00" arrival="28.10" arrivalLane="a4o_1" arrivalPos="176.18" arrivalSpeed="20.00" duration="24.10" routeLength="395.22" waitingTime="0.00" waitingCount="0" stopTime="0.00" timeLoss="4.16" rerouteNo="0" devices="tripinfo_E_S.0 emissions_E_S.0" vType="car" speedFactor="1.08" vaporized="">
        <emissions CO_abs="1740.162655" CO2_abs="117789.009470" HC_abs="10.746635" PMx_abs="2.368125" NOx_abs="48.852528" fuel_abs="50.632074" electricity_abs="0"/>
    </tripinfo>
    <tripinfo id="E_R.0" depart="1.70" departLane="a2i_0" departPos="4.90" departSpeed="0.00" departDelay="0.00" arrival="28.20" arrivalLane="a3o_0" arrivalPos="178.50" arrivalSpeed="19.13" duration="26.50" routeLength="363.97" waitingTime="0.00" waitingCount="0" stopTime="0.00" timeLoss="6.99" rerouteNo="0" devices="tripinfo_E_R.0 emissions_E_R.0" vType="car" speedFactor="1.01" vaporized="">
        <emissions CO_abs="2460.366458" CO2_abs="150248.201125" HC_abs="14.796526" PMx_abs="3.113083" NOx_abs="63.892965" fuel_abs="64.584748" electricity_abs="0"/>
    </tripinfo>
    <tripinfo id="W_R.0" depart="5.20" departLane="a4i_0" departPos="4.90" departSpeed="0.00" departDelay="2.70" arrival="31.00" arrivalLane="a1o_0" arrivalPos="174.27" arrivalSpeed="19.83" duration="25.80" routeLength="355.03" waitingTime="0.00" waitingCount="0" stopTime="0.00" timeLoss="6.99" rerouteNo="0" devices="tripinfo_W_R.0 emissions_W_R.0" vType="car" speedFactor="1.05" vaporized="">
        <emissions CO_abs="2535.069770" CO2_abs="152333.467618" HC_abs="15.220654" PMx_abs="3.205220" NOx_abs="65.189498" fuel_abs="65.481063" electricity_abs="0"/>
    </tripinfo>
    <tripinfo id="W_S.2" depart="7.50" departLane="a4i_0" departPos="4.90" departSpeed="0.00" departDelay="0.90" arrival="32.30" arrivalLane="a2o_1" arrivalPos="181.00" arrivalSpeed="19.47" duration="24.80" routeLength="395.22" waitingTime="0.00" waitingCount="0" stopTime="0.00" timeLoss="4.44" rerouteNo="0" devices="tripinfo_W_S.2 emissions_W_S.2" vType="car" speedFactor="1.03" vaporized="">
        <emissions CO_abs="1834.463608" CO2_abs="123675.842458" HC_abs="11.307105" PMx_abs="2.480557" NOx_abs="51.360416" fuel_abs="53.162556" electricity_abs="0"/>
    </tripinfo>
    <tripinfo id="N_R.0" depart="7.50" departLane="a3i_0" departPos="4.90" departSpeed="0.00" departDelay="0.60" arrival="34.30" arrivalLane="a4o_0" arrivalPos="176.18" arrivalSpeed="18.77" duration="26.80" routeLength="365.95" waitingTime="0.00" waitingCount="0" stopTime="0.00" timeLoss="6.74" rerouteNo="0" devices="tripinfo_N_R.0 emissions_N_R.0" vType="car" speedFactor="0.99" vaporized="">
        <emissions CO_abs="2965.148240" CO2_abs="178778.512111" HC_abs="17.820941" PMx_abs="3.817253" NOx_abs="77.071773" fuel_abs="76.848441" electricity_abs="0"/>
    </tripinfo>
    <tripinfo id="E_S.1" depart="6.30" departLane="a2i_0" departPos="4.90" departSpeed="0.00" departDelay="4.00" arrival="34.70" arrivalLane="a4o_1" arrivalPos="176.18" arrivalSpeed="15.68" duration="28.40" routeLength="395.22" waitingTime="0.00" waitingCount="0" stopTime="0.00" timeLoss="3.61" rerouteNo="0" devices="tripinfo_E_S.1 emissions_E_S.1" vType="car" speedFactor="0.83" vaporized="">
        <emissions CO_abs="1417.305565" CO2_abs="101525.304169" HC_abs="8.809681" PMx_abs="1.855953" NOx_abs="41.285744" fuel_abs="43.641221" electricity_abs="0"/>
    </tripinfo>
    <tripinfo id="E_S.2" depart="8.60" departLane="a2i_0" departPos="4.90" departSpeed="0.00" departDelay="3.90" arrival="35.00" arrivalLane="a4o_2" arrivalPos="176.18" arrivalSpeed="17.74" duration="26.40" routeLength="395.22" waitingTime="0.00" waitingCount="0" stopTime="0.00" timeLoss="4.37" rerouteNo="0" devices="tripinfo_E_S.2 emissions_E_S.2" vType="car" speedFactor="0.94" vaporized="">
        <emissions CO_abs="1632.198692" CO2_abs="111911.426341" HC_abs="10.067433" PMx_abs="2.168294" NOx_abs="46.174193" fuel_abs="48.105643" electricity_abs="0"/>
    </tripinfo>
    <tripinfo id="W_R.1" depart="9.90" departLane="a4i_0" departPos="4.90" departSpeed="0.00" departDelay="0.10" arrival="37.30" arrivalLane="a1o_0" arrivalPos="174.27" arrivalSpeed="17.71" duration="27.40" routeLength="355.03" waitingTime="0.00" waitingCount="0" stopTime="0.00" timeLoss="6.75" rerouteNo="0" devices="tripinfo_W_R.1 emissions_W_R.1" vType="car" speedFactor="0.94" vaporized="">
        <emissions CO_abs="2312.384947" CO2_abs="138885.025666" HC_abs="13.831030" PMx_abs="2.833261" NOx_abs="58.945714" fuel_abs="59.700326" electricity_abs="0"/>
    </tripinfo>
    <tripinfo id="N_R.1" depart="9.80" departLane="a3i_0" departPos="4.90" departSpeed="0.00" departDelay="1.20" arrival="37.40" arrivalLane="a4o_0" arrivalPos="176.18" arrivalSpeed="17.54" duration="27.60" routeLength="365.95" waitingTime="0.00" waitingCount="0" stopTime="0.00" timeLoss="6.16" rerouteNo="0" devices="tripinfo_N_R.1 emissions_N_R.1" vType="car" speedFactor="0.93" vaporized="">
        <emissions CO_abs="2165.961721" CO2_abs="134576.179803" HC_abs="13.074881" PMx_abs="2.723389" NOx_abs="56.912081" fuel_abs="57.848129" electricity_abs="0"/>
    </tripinfo>
    <tripinfo id="E_S.3" depart="13.20" departLane="a2i_0" departPos="4.90" departSpeed="0.00" departDelay="6.40" arrival="37.50" arrivalLane="a4o_1" arrivalPos="176.18" arrivalSpeed="19.84" duration="24.30" routeLength="395.22" waitingTime="0.00" waitingCount="0" stopTime="0.00" timeLoss="4.20" rerouteNo="0" devices="tripinfo_E_S.3 emissions_E_S.3" vType="car" speedFactor="1.05" vaporized="">
        <emissions CO_abs="1781.213492" CO2_abs="118809.038473" HC_abs="10.947791" PMx_abs="2.403720" NOx_abs="49.482206" fuel_abs="51.070523" electricity_abs="0"/>
    </tripinfo>
    <tripinfo id="E_R.1" depart="10.90" departLane="a2i_0" departPos="4.90" departSpeed="0.00" departDelay="4.80" arrival="39.80" arrivalLane="a3o_0" arrivalPos="178.50" arrivalSpeed="16.27" duration="28.90" routeLength="363.97" waitingTime="0.00" waitingCount="0" stopTime="0.00" timeLoss="6.04" rerouteNo="0" devices="tripinfo_E_R.1 emissions_E_R.1" vType="car" speedFactor="0.86" vaporized="">
        <emissions CO_abs="2050.563253" CO2_abs="125879.649266" HC_abs="12.306269" PMx_abs="2.471578" NOx_abs="52.804005" fuel_abs="54.110016" electricity_abs="0"/>
    </tripinfo>
    <tripinfo id="E_S.4" depart="15.50" departLane="a2i_0" departPos="4.90" departSpeed="0.00" departDelay="6.60" arrival="41.40" arrivalLane="a4o_1" arrivalPos="176.18" arrivalSpeed="17.81" duration="25.90" routeLength="395.22" waitingTime="0.00" waitingCount="0" stopTime="0.00" timeLoss="3.96" rerouteNo="0" devices="tripinfo_E_S.4 emissions_E_S.4" vType="car" speedFactor="0.94" vaporized="">
        <emissions CO_abs="1611.248031" CO2_abs="113877.133947" HC_abs="9.995731" PMx_abs="2.192306" NOx_abs="46.742553" fuel_abs="48.950602" electricity_abs="0"/>
    </tripinfo>
    <tripinfo id="W_R.2" depart="14.50" departLane="a4i_0" departPos="4.90" departSpeed="0.00" departDelay="0.00" arrival="42.30" arrivalLane="a1o_0" arrivalPos="174.27" arrivalSpeed="17.42" duration="27.80" routeLength="355.03" waitingTime="0.00" waitingCount="0" stopTime="0.00" timeLoss="6.71" rerouteNo="0" devices="tripinfo_W_R.2 emissions_W_R.2" vType="car" speedFactor="0.92" vaporized="">
        <emissions CO_abs="2247.014197" CO2_abs="135344.316437" HC_abs="13.432917" PMx_abs="2.730214" NOx_abs="57.238723" fuel_abs="58.178377" electricity_abs="0"/>
    </tripinfo>
    <tripinfo id="W_S.3" depart="16.80" departLane="a4i_0" departPos="4.90" departSpeed="0.00" departDelay="2.20" arrival="42.60" arrivalLane="a2o_1" arrivalPos="181.00" arrivalSpeed="17.96" duration="25.80" routeLength="395.22" waitingTime="0.00" waitingCount="0" stopTime="0.00" timeLoss="4.08" rerouteNo="0" devices="tripinfo_W_S.3 emissions_W_S.3" vType="car" speedFactor="0.95" vaporized="">
        <emissions CO_abs="1663.970149" CO2_abs="116266.472656" HC_abs="10.296758" PMx_abs="2.256372" NOx_abs="47.867059" fuel_abs="49.977656" electricity_abs="0"/>
    </tripinfo>
    <tripinfo id="E_S.5" depart="17.80" departLane="a2i_0" departPos="4.90" departSpeed="0.00" departDelay="6.80" arrival="42.70" arrivalLane="a4o_1" arrivalPos="176.18" arrivalSpeed="19.31" duration="24.90" routeLength="395.22" waitingTime="0.00" waitingCount="0" stopTime="0.00" timeLoss="4.42" rerouteNo="0" devices="tripinfo_E_S.5 emissions_E_S.5" vType="car" speedFactor="1.02" vaporized="">
        <emissions CO_abs="1824.648423" CO2_abs="122973.621157" HC_abs="11.207677" PMx_abs="2.466089" NOx_abs="51.113208" fuel_abs="52.860692" electricity_abs="0"/>
    </tripinfo>
    <tripinfo id="S_R.0" depart="16.10" departLane="a1i_0" departPos="4.90" departSpeed="0.00" departDelay="0.90" arrival="42.90" arrivalLane="a2o_0" arrivalPos="181.00" arrivalSpeed="18.72" duration="26.80" routeLength="371.93" waitingTime="0.00" waitingCount="0" stopTime="0.00" timeLoss="7.49" rerouteNo="0" devices="tripinfo_S_R.0 emissions_S_R.0" vType="car" speedFactor="1.13" vaporized="">
        <emissions CO_abs="2694.646851" CO2_abs="164995.363214" HC_abs="16.217692" PMx_abs="3.476062" NOx_abs="70.724660" fuel_abs="70.923756" electricity_abs="0"/>
    </tripinfo>
    <tripinfo id="W_S.4" depart="21.40" departLane="a4i_0" departPos="4.90" departSpeed="0.00" departDelay="3.70" arrival="46.50" arrivalLane="a2o_1" arrivalPos="181.00" arrivalSpeed="18.88" duration="25.10" routeLength="395.22" waitingTime="0.00" waitingCount="0" stopTime="0.00" timeLoss="4.29" rerouteNo="0" devices="tripinfo_W_S.4 emissions_W_S.4" vType="car" speedFactor="0.99" vaporized="">
        <emissions CO_abs="1789.981041" CO2_abs="119827.290585" HC_abs="10.997357" PMx_abs="2.404086" NOx_abs="49.886244" fuel_abs="51.508235" electricity_abs="0"/>
    </tripinfo>
    <tripinfo id="W_R.3" depart="19.10" departLane="a4i_0" departPos="4.90" departSpeed="0.00" departDelay="3.80" arrival="46.60" arrivalLane="a1o_0" arrivalPos="174.27" arrivalSpeed="17.68" duration="27.50" routeLength="355.03" waitingTime="0.00" waitingCount="0" stopTime="0.00" timeLoss="6.80" rerouteNo="0" devices="tripinfo_W_R.3 emissions_W_R.3" vType="car" speedFactor="0.93" vaporized="">
        <emissions CO_abs="2290.165903" CO2_abs="136763.673299" HC_abs="13.698649" PMx_abs="2.797199" NOx_abs="58.144165" fuel_abs="58.788452" electricity_abs="0"/>
    </tripinfo>
    <tripinfo id="W_S.5" depart="23.90" departLane="a4i_0" departPos="4.90" departSpeed="0.00" departDelay="0.00" arrival="48.20" arrivalLane="a2o_1" arrivalPos="181.00" arrivalSpeed="19.89" duration="24.30" routeLength="395.22" waitingTime="0.00" waitingCount="0" stopTime="0.00" timeLoss="4.29" rerouteNo="0" devices="tripinfo_W_S.5 emissions_W_S.5" vType="car" speedFactor="1.09" vaporized="">
        <emissions CO_abs="1765.101745" CO2_abs="117938.225838" HC_abs="10.851094" PMx_abs="2.376487" NOx_abs="48.983245" fuel_abs="50.696220" electricity_abs="0"/>
    </tripinfo>
    <tripinfo id="E_S.6" depart="20.70" departLane="a2i_0" departPos="4.90" departSpeed="0.00" departDelay="8.00" arrival="49.20" arrivalLane="a4o_1" arrivalPos="176.18" arrivalSpeed="15.68" duration="28.50" routeLength="395.22" waitingTime="0.00" waitingCount="0" stopTime="0.00" timeLoss="3.54" rerouteNo="0" devices="tripinfo_E_S.6 emissions_E_S.6" vType="car" speedFactor="0.83" vaporized="">
        <emissions CO_abs="1401.579273" CO2_abs="100547.367123" HC_abs="8.686821" PMx_abs="1.829507" NOx_abs="40.830486" fuel_abs="43.220856" electricity_abs="0"/>
    </tripinfo>
    <tripinfo id="E_S.8" depart="25.30" departLane="a2i_0" departPos="4.90" departSpeed="0.00" departDelay="9.10" arrival="49.40" arrivalLane="a4o_2" arrivalPos="176.18" arrivalSpeed="19.94" duration="24.10" routeLength="395.22" waitingTime="0.00" waitingCount="0" stopTime="0.00" timeLoss="4.34" rerouteNo="0" devices="tripinfo_E_S.8 emissions_E_S.8" vType="car" speedFactor="1.18" vaporized="">
        <emissions CO_abs="1856.630336" CO2_abs="123493.184908" HC_abs="11.408756" PMx_abs="2.518995" NOx_abs="51.575175" fuel_abs="53.083994" electricity_abs="0"/>
    </tripinfo>
    <tripinfo id="N_R.2" depart="22.80" departLane="a3i_0" departPos="4.90" departSpeed="0.00" departDelay="0.00" arrival="50.10" arrivalLane="a4o_0" arrivalPos="176.18" arrivalSpeed="18.47" duration="27.30" routeLength="365.95" waitingTime="0.00" waitingCount="0" stopTime="0.00" timeLoss="7.78" rerouteNo="0" devices="tripinfo_N_R.2 emissions_N_R.2" vType="car" speedFactor="1.03" vaporized="">
        <emissions CO_abs="3379.080016" CO2_abs="201064.193492" HC_abs="20.263204" PMx_abs="4.360228" NOx_abs="87.350493" fuel_abs="86.427915" electricity_abs="0"/>
    </tripinfo>
    <tripinfo id="W_S.6" depart="26.20" departLane="a4i_0" departPos="4.90" departSpeed="0.00" departDelay="1.10" arrival="50.40" arrivalLane="a2o_1" arrivalPos="181.00" arrivalSpeed="19.96" duration="24.20" routeLength="395.22" waitingTime="0.00" waitingCount="0" stopTime="0.00" timeLoss="4.17" rerouteNo="0" devices="tripinfo_W_S.6 emissions_W_S.6" vType="car" speedFactor="1.09" vaporized="">
        <emissions CO_abs="1730.262623" CO2_abs="118926.382061" HC_abs="10.703538" PMx_abs="2.371810" NOx_abs="49.126894" fuel_abs="51.120988" electricity_abs="0"/>
    </tripinfo>
    <tripinfo id="E_S.7" depart="23.00" departLane="a2i_0" departPos="4.90" departSpeed="0.00" departDelay="9.10" arrival="50.50" arrivalLane="a4o_1" arrivalPos="176.18" arrivalSpeed="16.52" duration="27.50" routeLength="395.22" waitingTime="0.00" waitingCount="0" stopTime="0.00" timeLoss="3.84" rerouteNo="0" devices="tripinfo_E_S.7 emissions_E_S.7" vType="car" speedFactor="0.87" vaporized="">
        <emissions CO_abs="1518.458618" CO2_abs="104220.977608" HC_abs="9.362484" PMx_abs="1.988391" NOx_abs="42.957632" fuel_abs="44.799898" electricity_abs="0"/>
    </tripinfo>
    <tripinfo id="E_S.9" depart="27.60" departLane="a2i_0" departPos="4.90" departSpeed="0.00" departDelay="10.90" arrival="52.40" arrivalLane="a4o_1" arrivalPos="176.18" arrivalSpeed="19.04" duration="24.80" routeLength="395.22" waitingTime="0.00" waitingCount="0" stopTime="0.00" timeLoss="4.25" rerouteNo="0" devices="tripinfo_E_S.9 emissions_E_S.9" vType="car" speedFactor="1.01" vaporized="">
        <emissions CO_abs="1805.896668" CO2_abs="122240.638241" HC_abs="11.130999" PMx_abs="2.450929" NOx_abs="50.800630" fuel_abs="52.545616" electricity_abs="0"/>
    </tripinfo>
    <tripinfo id="W_S.8" depart="30.80" departLane="a4i_0" departPos="4.90" departSpeed="0.00" departDelay="3.60" arrival="55.00" arrivalLane="a2o_2" arrivalPos="181.00" arrivalSpeed="19.98" duration="24.20" routeLength="395.22" waitingTime="0.00" waitingCount="0" stopTime="0.00" timeLoss="4.39" rerouteNo="0" devices="tripinfo_W_S.8 emissions_W_S.8" vType="car" speedFactor="1.17" vaporized="">
        <emissions CO_abs="1880.398552" CO2_abs="126880.663547" HC_abs="11.612765" PMx_abs="2.574327" NOx_abs="52.829274" fuel_abs="54.540122" electricity_abs="0"/>
    </tripinfo>
    <tripinfo id="E_S.10" depart="29.90" departLane="a2i_0" departPos="4.90" departSpeed="0.00" departDelay="11.70" arrival="55.30" arrivalLane="a4o_1" arrivalPos="176.18" arrivalSpeed="18.45" duration="25.40" routeLength="395.22" waitingTime="0.00" waitingCount="0" stopTime="0.00" timeLoss="4.15" rerouteNo="0" devices="tripinfo_E_S.10 emissions_E_S.10" vType="car" speedFactor="0.97" vaporized="">
        <emissions CO_abs="1728.221884" CO2_abs="120112.197049" HC_abs="10.705297" PMx_abs="2.358433" NOx_abs="49.568350" fuel_abs="51.630734" electricity_abs="0"/>
    </tripinfo>
    <tripinfo id="W_S.7" depart="28.50" departLane="a4i_0" departPos="4.90" departSpeed="0.00" departDelay="1.60" arrival="56.40" arrivalLane="a2o_1" arrivalPos="181.00" arrivalSpeed="16.06" duration="27.90" routeLength="395.22" waitingTime="0.00" waitingCount="0" stopTime="0.00" timeLoss="3.62" rerouteNo="0" devices="tripinfo_W_S.7 emissions_W_S.7" vType="car" speedFactor="0.85" vaporized="">
        <emissions CO_abs="1454.838385" CO2_abs="99727.415145" HC_abs="8.965695" PMx_abs="1.883507" NOx_abs="41.013076" fuel_abs="42.868346" electricity_abs="0"/>
    </tripinfo>
    <tripinfo id="E_S.11" depart="32.20" departLane="a2i_0" departPos="4.90" departSpeed="0.00" departDelay="11.90" arrival="56.50" arrivalLane="a4o_1" arrivalPos="176.18" arrivalSpeed="19.96" duration="24.30" routeLength="395.22" waitingTime="0.00" waitingCount="0" stopTime="0.00" timeLoss="4.46" rerouteNo="0" devices="tripinfo_E_S.11 emissions_E_S.11" vType="car" speedFactor="1.18" vaporized="">
        <emissions CO_abs="1790.666937" CO2_abs="119470.752043" HC_abs="11.027927" PMx_abs="2.421715" NOx_abs="49.783201" fuel_abs="51.354960" electricity_abs="0"/>
    </tripinfo>
    <tripinfo id="S_R.1" depart="33.30" departLane="a1i_0" departPos="4.90" departSpeed="0.00" departDelay="2.30" arrival="60.10" arrivalLane="a2o_0" arrivalPos="181.00" arrivalSpeed="19.29" duration="26.80" routeLength="371.93" waitingTime="0.00" waitingCount="0" stopTime="0.00" timeLoss="6.99" rerouteNo="0" devices="tripinfo_S_R.1 emissions_S_R.1" vType="car" speedFactor="1.02" vaporized="">
        <emissions CO_abs="2811.471905" CO2_abs="170674.964806" HC_abs="16.918322" PMx_abs="3.616534" NOx_abs="73.322569" fuel_abs="73.365141" electricity_abs="0"/>
    </tripinfo>
    <tripinfo id="W_R.4" depart="34.30" departLane="a4i_0" departPos="4.90" departSpeed="0.00" departDelay="7.10" arrival="60.60" arrivalLane="a1o_0" arrivalPos="174.27" arrivalSpeed="19.31" duration="26.30" routeLength="355.03" waitingTime="0.00" waitingCount="0" stopTime="0.00" timeLoss="7.16" rerouteNo="0" devices="tripinfo_W_R.4 emissions_W_R.4" vType="car" speedFactor="1.02" vaporized="">
        <emissions CO_abs="2518.372635" CO2_abs="151115.487265" HC_abs="15.085966" PMx_abs="3.151517" NOx_abs="64.498143" fuel_abs="64.957551" electricity_abs="0"/>
    </tripinfo>
    <tripinfo id="E_L.0" depart="20.10" departLane="a2i_0" departPos="4.90" departSpeed="0.00" departDelay="8.30" arrival="65.30" arrivalLane="a1o_2" arrivalPos="174.27" arrivalSpeed="18.47" duration="45.20" routeLength="393.74" waitingTime="12.60" waitingCount="1" stopTime="0.00" timeLoss="23.78" rerouteNo="0" devices="tripinfo_E_L.0 emissions_E_L.0" vType="car" speedFactor="0.98" vaporized="">
        <emissions CO_abs="5032.934176" CO2_abs="201687.754366" HC_abs="27.729394" PMx_abs="4.335161" NOx_abs="87.273995" fuel_abs="86.697425" electricity_abs="0"/>
    </tripinfo>
    <tripinfo id="W_L.0" depart="2.30" departLane="a4i_0" departPos="4.90" departSpeed="0.00" departDelay="1.10" arrival="65.70" arrivalLane="a3o_2" arrivalPos="178.50" arrivalSpeed="17.71" duration="63.40" routeLength="392.39" waitingTime="30.50" waitingCount="1" stopTime="0.00" timeLoss="40.85" rerouteNo="0" devices="tripinfo_W_L.0 emissions_W_L.0" vType="car" speedFactor="0.94" vaporized="">
        <emissions CO_abs="7838.188923" CO2_abs="242417.538641" HC_abs="41.417799" PMx_abs="5.324444" NOx_abs="105.699674" fuel_abs="104.206861" electricity_abs="0"/>
    </tripinfo>
    <tripinfo id="S_R.2" depart="39.20" departLane="a1i_0" departPos="4.90" departSpeed="0.00" departDelay="0.00" arrival="66.20" arrivalLane="a2o_0" arrivalPos="181.00" arrivalSpeed="18.55" duration="27.00" routeLength="371.93" waitingTime="0.00" waitingCount="0" stopTime="0.00" timeLoss="6.63" rerouteNo="0" devices="tripinfo_S_R.2 emissions_S_R.2" vType="car" speedFactor="0.98" vaporized="">
        <emissions CO_abs="2669.453312" CO2_abs="164188.602687" HC_abs="16.108036" PMx_abs="3.440109" NOx_abs="70.236971" fuel_abs="70.576993" electricity_abs="0"/>
    </tripinfo>
    <tripinfo id="E_L.1" depart="34.10" departLane="a2i_0" departPos="4.90" departSpeed="0.00" departDelay="12.00" arrival="66.60" arrivalLane="a1o_2" arrivalPos="174.27" arrivalSpeed="19.94" duration="32.50" routeLength="393.74" waitingTime="0.00" waitingCount="0" stopTime="0.00" timeLoss="12.34" rerouteNo="0" devices="tripinfo_E_L.1 emissions_E_L.1" vType="car" speedFactor="1.10" vaporized="">
        <emissions CO_abs="3112.706164" CO2_abs="178399.307543" HC_abs="18.473846" PMx_abs="3.752355" NOx_abs="76.628803" fuel_abs="76.685649" electricity_abs="0"/>
    </tripinfo>
    <tripinfo id="N_R.3" depart="39.80" departLane="a3i_0" departPos="4.90" departSpeed="0.00" departDelay="8.20" arrival="66.70" arrivalLane="a4o_0" arrivalPos="176.18" arrivalSpeed="18.72" duration="26.90" routeLength="365.95" waitingTime="0.00" waitingCount="0" stopTime="0.00" timeLoss="6.78" rerouteNo="0" devices="tripinfo_N_R.3 emissions_N_R.3" vType="car" speedFactor="0.99" vaporized="">
        <emissions CO_abs="2663.988953" CO2_abs="160686.289888" HC_abs="15.996192" PMx_abs="3.385494" NOx_abs="68.942447" fuel_abs="69.071519" electricity_abs="0"/>
    </tripinfo>
    <tripinfo id="E_L.2" depart="39.10" departLane="a2i_0" departPos="4.90" departSpeed="0.00" departDelay="11.20" arrival="68.80" arrivalLane="a1o_2" arrivalPos="174.27" arrivalSpeed="18.99" duration="29.70" routeLength="393.74" waitingTime="0.00" waitingCount="0" stopTime="0.00" timeLoss="8.86" rerouteNo="0" devices="tripinfo_E_L.2 emissions_E_L.2" vType="car" speedFactor="1.00" vaporized="">
        <emissions CO_abs="2521.087367" CO2_abs="153374.180072" HC_abs="15.153941" PMx_abs="3.170183" NOx_abs="65.356703" fuel_abs="65.928465" electricity_abs="0"/>
    </tripinfo>
    <tripinfo id="E_R.2" depart="42.90" departLane="a2i_0" departPos="4.90" departSpeed="0.00" departDelay="13.00" arrival="69.30" arrivalLane="a3o_0" arrivalPos="178.50" arrivalSpeed="19.97" duration="26.40" routeLength="363.97" waitingTime="0.00" waitingCount="0" stopTime="0.00" timeLoss="7.34" rerouteNo="0" devices="tripinfo_E_R.2 emissions_E_R.2" vType="car" speedFactor="1.08" vaporized="">
        <emissions CO_abs="2798.899163" CO2_abs="169272.312914" HC_abs="16.819576" PMx_abs="3.581026" NOx_abs="72.566793" fuel_abs="72.762236" electricity_abs="0"/>
    </tripinfo>
    <tripinfo id="N_R.4" depart="42.90" departLane="a3i_0" departPos="4.90" departSpeed="0.00" departDelay="4.90" arrival="70.30" arrivalLane="a4o_0" arrivalPos="176.18" arrivalSpeed="18.04" duration="27.40" routeLength="365.95" waitingTime="0.00" waitingCount="0" stopTime="0.00" timeLoss="6.63" rerouteNo="0" devices="tripinfo_N_R.4 emissions_N_R.4" vType="car" speedFactor="0.96" vaporized="">
        <emissions CO_abs="2408.148214" CO2_abs="147729.868349" HC_abs="14.504098" PMx_abs="3.047797" NOx_abs="62.893476" fuel_abs="63.502230" electricity_abs="0"/>
    </tripinfo>
    <tripinfo id="S_R.3" depart="44.60" departLane="a1i_0" departPos="4.90" departSpeed="0.00" departDelay="2.00" arrival="71.40" arrivalLane="a2o_0" arrivalPos="181.00" arrivalSpeed="18.86" duration="26.80" routeLength="371.93" waitingTime="0.00" waitingCount="0" stopTime="0.00" timeLoss="6.72" rerouteNo="0" devices="tripinfo_S_R.3 emissions_S_R.3" vType="car" speedFactor="1.00" vaporized="">
        <emissions CO_abs="2757.078257" CO2_abs="169136.198103" HC_abs="16.623858" PMx_abs="3.567053" NOx_abs="72.494338" fuel_abs="72.703703" electricity_abs="0"/>
    </tripinfo>
    <tripinfo id="E_R.3" depart="45.20" departLane="a2i_0" departPos="4.90" departSpeed="0.00" departDelay="11.70" arrival="73.80" arrivalLane="a3o_0" arrivalPos="178.50" arrivalSpeed="17.17" duration="28.60" routeLength="363.97" waitingTime="0.00" waitingCount="0" stopTime="0.00" timeLoss="6.99" rerouteNo="0" devices="tripinfo_E_R.3 emissions_E_R.3" vType="car" speedFactor="0.91" vaporized="">
        <emissions CO_abs="2276.851459" CO2_abs="138203.113831" HC_abs="13.650360" PMx_abs="2.786107" NOx_abs="58.466472" fuel_abs="59.407232" electricity_abs="0"/>
    </tripinfo>
    <tripinfo id="N_R.5" depart="47.50" departLane="a3i_0" departPos="4.90" departSpeed="0.00" departDelay="0.30" arrival="74.10" arrivalLane="a4o_0" arrivalPos="176.18" arrivalSpeed="19.01" duration="26.60" routeLength="365.95" waitingTime="0.00" waitingCount="0" stopTime="0.00" timeLoss="6.77" rerouteNo="0" devices="tripinfo_N_R.5 emissions_N_R.5" vType="car" speedFactor="1.00" vaporized="">
        <emissions CO_abs="2714.850863" CO2_abs="165121.463643" HC_abs="16.343441" PMx_abs="3.483220" NOx_abs="70.803513" fuel_abs="70.977975" electricity_abs="0"/>
    </tripinfo>
    <tripinfo id="W_L.1" depart="47.90" departLane="a4i_0" departPos="4.90" departSpeed="0.00" departDelay="0.00" arrival="75.50" arrivalLane="a3o_2" arrivalPos="178.50" arrivalSpeed="19.05" duration="27.60" routeLength="392.39" waitingTime="0.00" waitingCount="0" stopTime="0.00" timeLoss="6.51" rerouteNo="0" devices="tripinfo_W_L.1 emissions_W_L.1" vType="car" speedFactor="1.01" vaporized="">
        <emissions CO_abs="2451.575789" CO2_abs="153055.311360" HC_abs="14.851144" PMx_abs="3.168886" NOx_abs="64.992195" fuel_abs="65.791365" electricity_abs="0"/>
    </tripinfo>
    <tripinfo id="E_R.4" depart="47.50" departLane="a2i_0" departPos="4.90" departSpeed="0.00" departDelay="13.80" arrival="76.30" arrivalLane="a3o_0" arrivalPos="178.50" arrivalSpeed="17.33" duration="28.80" routeLength="363.97" waitingTime="0.00" waitingCount="0" stopTime="0.00" timeLoss="7.34" rerouteNo="0" devices="tripinfo_E_R.4 emissions_E_R.4" vType="car" speedFactor="0.91" vaporized="">
        <emissions CO_abs="2177.917122" CO2_abs="131216.320340" HC_abs="13.046415" PMx_abs="2.658023" NOx_abs="55.612893" fuel_abs="56.403921" electricity_abs="0"/>
    </tripinfo>
    <tripinfo id="W_R.5" depart="53.50" departLane="a4i_0" departPos="4.90" departSpeed="0.00" departDelay="0.00" arrival="81.40" arrivalLane="a1o_0" arrivalPos="174.27" arrivalSpeed="17.11" duration="27.90" routeLength="355.03" waitingTime="0.00" waitingCount="0" stopTime="0.00" timeLoss="6.63" rerouteNo="0" devices="tripinfo_W_R.5 emissions_W_R.5" vType="car" speedFactor="0.91" vaporized="">
        <emissions CO_abs="2423.323182" CO2_abs="144166.548294" HC_abs="14.460963" PMx_abs="2.951497" NOx_abs="61.360229" fuel_abs="61.970604" electricity_abs="0"/>
    </tripinfo>
    <tripinfo id="N_R.6" depart="54.40" departLane="a3i_0" departPos="4.90" departSpeed="0.00" departDelay="2.50" arrival="82.00" arrivalLane="a4o_0" arrivalPos="176.18" arrivalSpeed="17.49" duration="27.60" routeLength="365.95" waitingTime="0.00" waitingCount="0" stopTime="0.00" timeLoss="6.06" rerouteNo="0" devices="tripinfo_N_R.6 emissions_N_R.6" vType="car" speedFactor="0.92" vaporized="">
        <emissions CO_abs="2537.497510" CO2_abs="155499.324738" HC_abs="15.268947" PMx_abs="3.219154" NOx_abs="66.347225" fuel_abs="66.841935" electricity_abs="0"/>
    </tripinfo>
    <tripinfo id="E_R.5" depart="56.70" departLane="a2i_0" departPos="4.90" departSpeed="0.00" departDelay="19.50" arrival="83.20" arrivalLane="a3o_0" arrivalPos="178.50" arrivalSpeed="19.95" duration="26.50" routeLength="363.97" waitingTime="0.00" waitingCount="0" stopTime="0.00" timeLoss="7.46" rerouteNo="0" devices="tripinfo_E_R.5 emissions_E_R.5" vType="car" speedFactor="1.06" vaporized="">
        <emissions CO_abs="2748.515716" CO2_abs="167738.784238" HC_abs="16.557530" PMx_abs="3.530090" NOx_abs="71.732666" fuel_abs="72.103058" electricity_abs="0"/>
    </tripinfo>
    <tripinfo id="S_R.4" depart="61.00" departLane="a1i_0" departPos="4.90" departSpeed="0.00" departDelay="0.00" arrival="89.50" arrivalLane="a2o_0" arrivalPos="181.00" arrivalSpeed="16.38" duration="28.50" routeLength="371.93" waitingTime="0.00" waitingCount="0" stopTime="0.00" timeLoss="5.38" rerouteNo="0" devices="tripinfo_S_R.4 emissions_S_R.4" vType="car" speedFactor="0.87" vaporized="">