<?xml version="1.0" encoding="UTF-8"?>

<!-- generated on 11/28/19 15:07:37 by Eclipse SUMO GUI Version 1.3.1
<configuration xmlns:xsi="http://www.w3.org/2001/XMLSchema-instance" xsi:noNamespaceSchemaLocation="http://sumo.dlr.de/xsd/sumoConfiguration.xsd">

    <input>
        <net-file value="../cfg5/intersection.net.xml"/>
        <route-files value="../cfg5/intersection.rou.xml"/>
        <additional-files value="../cfg5/intersection.det.xml"/>
    </input>

    <output>
        <tripinfo-output value="../result/tripinfo11.xml"/>
    </output>

    <time>
        <begin value="0"/>
        <end value="3800"/>
        <step-length value="0.1"/>
    </time>

    <processing>
        <collision.action value="none"/>
    </processing>

    <emissions>
        <device.emissions.probability value="1"/>
    </emissions>

    <traci_server>
        <remote-port value="49411"/>
    </traci_server>

    <gui_only>
        <tracker-interval value="0.1"/>
    </gui_only>

</configuration>
-->

<tripinfos xmlns:xsi="http://www.w3.org/2001/XMLSchema-instance" xsi:noNamespaceSchemaLocation="http://sumo.dlr.de/xsd/tripinfo_file.xsd">
    <tripinfo id="E_R.0" depart="1.70" departLane="a2i_0" departPos="4.90" departSpeed="0.00" departDelay="0.00" arrival="29.50" arrivalLane="a3o_0" arrivalPos="178.50" arrivalSpeed="19.17" duration="27.80" routeLength="363.97" waitingTime="0.00" waitingCount="0" stopTime="0.00" timeLoss="5.49" rerouteNo="0" devices="tripinfo_E_R.0 emissions_E_R.0" vType="car" speedFactor="1.01" vaporized="">
        <emissions CO_abs="2092.610020" CO2_abs="131103.096257" HC_abs="12.641352" PMx_abs="2.600865" NOx_abs="55.016874" fuel_abs="56.355282" electricity_abs="0"/>
    </tripinfo>
    <tripinfo id="W_L.0" depart="2.40" departLane="a4i_0" departPos="4.90" departSpeed="0.00" departDelay="1.20" arrival="32.40" arrivalLane="a3o_3" arrivalPos="178.50" arrivalSpeed="17.79" duration="30.00" routeLength="389.27" waitingTime="0.00" waitingCount="0" stopTime="0.00" timeLoss="4.59" rerouteNo="0" devices="tripinfo_W_L.0 emissions_W_L.0" vType="car" speedFactor="0.94" vaporized="">
        <emissions CO_abs="1836.194005" CO2_abs="121349.536984" HC_abs="11.213199" PMx_abs="2.302947" NOx_abs="50.237318" fuel_abs="52.162741" electricity_abs="0"/>
    </tripinfo>
    <tripinfo id="W_R.0" depart="5.30" departLane="a4i_0" departPos="4.90" departSpeed="0.00" departDelay="2.80" arrival="32.40" arrivalLane="a1o_0" arrivalPos="174.27" arrivalSpeed="19.82" duration="27.10" routeLength="355.03" waitingTime="0.00" waitingCount="0" stopTime="0.00" timeLoss="5.85" rerouteNo="0" devices="tripinfo_W_R.0 emissions_W_R.0" vType="car" speedFactor="1.05" vaporized="">
        <emissions CO_abs="2200.564324" CO2_abs="135942.427312" HC_abs="13.266292" PMx_abs="2.735517" NOx_abs="57.318303" fuel_abs="58.435459" electricity_abs="0"/>
    </tripinfo>
    <tripinfo id="N_R.0" depart="8.10" departLane="a3i_0" departPos="4.90" departSpeed="0.00" departDelay="1.20" arrival="35.80" arrivalLane="a4o_0" arrivalPos="176.18" arrivalSpeed="18.74" duration="27.70" routeLength="365.95" waitingTime="0.00" waitingCount="0" stopTime="0.00" timeLoss="4.68" rerouteNo="0" devices="tripinfo_N_R.0 emissions_N_R.0" vType="car" speedFactor="0.99" vaporized="">
        <emissions CO_abs="1970.146492" CO2_abs="125706.250666" HC_abs="11.948291" PMx_abs="2.479087" NOx_abs="52.661390" fuel_abs="54.035413" electricity_abs="0"/>
    </tripinfo>
    <tripinfo id="W_R.1" depart="9.90" departLane="a4i_0" departPos="4.90" departSpeed="0.00" departDelay="0.10" arrival="38.90" arrivalLane="a1o_0" arrivalPos="174.27" arrivalSpeed="17.69" duration="29.00" routeLength="355.03" waitingTime="0.00" waitingCount="0" stopTime="0.00" timeLoss="5.32" rerouteNo="0" devices="tripinfo_W_R.1 emissions_W_R.1" vType="car" speedFactor="0.94" vaporized="">
        <emissions CO_abs="1957.438523" CO2_abs="119255.332648" HC_abs="11.750975" PMx_abs="2.328956" NOx_abs="50.038882" fuel_abs="51.262547" electricity_abs="0"/>
    </tripinfo>
    <tripinfo id="N_R.1" depart="10.40" departLane="a3i_0" departPos="4.90" departSpeed="0.00" departDelay="1.80" arrival="39.60" arrivalLane="a4o_0" arrivalPos="176.18" arrivalSpeed="17.61" duration="29.20" routeLength="365.95" waitingTime="0.00" waitingCount="0" stopTime="0.00" timeLoss="4.64" rerouteNo="0" devices="tripinfo_N_R.1 emissions_N_R.1" vType="car" speedFactor="0.93" vaporized="">
        <emissions CO_abs="1838.004485" CO2_abs="118153.145375" HC_abs="11.158565" PMx_abs="2.254398" NOx_abs="49.066737" fuel_abs="50.788774" electricity_abs="0"/>
    </tripinfo>
    <tripinfo id="E_R.1" depart="11.00" departLane="a2i_0" departPos="4.90" departSpeed="0.00" departDelay="4.90" arrival="42.00" arrivalLane="a3o_0" arrivalPos="178.50" arrivalSpeed="16.24" duration="31.00" routeLength="363.97" waitingTime="0.00" waitingCount="0" stopTime="0.00" timeLoss="4.68" rerouteNo="0" devices="tripinfo_E_R.1 emissions_E_R.1" vType="car" speedFactor="0.86" vaporized="">
        <emissions CO_abs="1786.621086" CO2_abs="110753.736974" HC_abs="10.740159" PMx_abs="2.063975" NOx_abs="45.834703" fuel_abs="47.608212" electricity_abs="0"/>
    </tripinfo>
    <tripinfo id="N_S.0" depart="12.70" departLane="a3i_0" departPos="4.90" departSpeed="0.00" departDelay="0.10" arrival="42.00" arrivalLane="a1o_1" arrivalPos="174.27" arrivalSpeed="16.87" duration="29.30" routeLength="392.77" waitingTime="0.00" waitingCount="0" stopTime="0.00" timeLoss="2.98" rerouteNo="0" devices="tripinfo_N_S.0 emissions_N_S.0" vType="car" speedFactor="0.89" vaporized="">
        <emissions CO_abs="1356.836914" CO2_abs="98290.040714" HC_abs="8.481646" PMx_abs="1.747488" NOx_abs="39.668013" fuel_abs="42.250592" electricity_abs="0"/>
    </tripinfo>
    <tripinfo id="S_R.0" depart="16.10" departLane="a1i_0" departPos="4.90" departSpeed="0.00" departDelay="0.90" arrival="42.80" arrivalLane="a2o_0" arrivalPos="181.00" arrivalSpeed="19.91" duration="26.70" routeLength="371.93" waitingTime="0.00" waitingCount="0" stopTime="0.00" timeLoss="5.84" rerouteNo="0" devices="tripinfo_S_R.0 emissions_S_R.0" vType="car" speedFactor="1.13" vaporized="">
        <emissions CO_abs="2681.463331" CO2_abs="164284.286173" HC_abs="16.167039" PMx_abs="3.455366" NOx_abs="70.300889" fuel_abs="70.618118" electricity_abs="0"/>
    </tripinfo>
    <tripinfo id="W_R.2" depart="14.50" departLane="a4i_0" departPos="4.90" departSpeed="0.00" departDelay="0.00" arrival="43.70" arrivalLane="a1o_0" arrivalPos="174.27" arrivalSpeed="17.37" duration="29.20" routeLength="355.03" waitingTime="0.00" waitingCount="0" stopTime="0.00" timeLoss="5.11" rerouteNo="0" devices="tripinfo_W_R.2 emissions_W_R.2" vType="car" speedFactor="0.92" vaporized="">
        <emissions CO_abs="1915.448432" CO2_abs="118506.781999" HC_abs="11.520794" PMx_abs="2.270363" NOx_abs="49.366225" fuel_abs="50.940825" electricity_abs="0"/>
    </tripinfo>
    <tripinfo id="W_R.3" depart="19.10" departLane="a4i_0" departPos="4.90" departSpeed="0.00" departDelay="3.80" arrival="48.10" arrivalLane="a1o_0" arrivalPos="174.27" arrivalSpeed="17.66" duration="29.00" routeLength="355.03" waitingTime="0.00" waitingCount="0" stopTime="0.00" timeLoss="5.20" rerouteNo="0" devices="tripinfo_W_R.3 emissions_W_R.3" vType="car" speedFactor="0.93" vaporized="">
        <emissions CO_abs="1911.717091" CO2_abs="118030.274717" HC_abs="11.498057" PMx_abs="2.288429" NOx_abs="49.351098" fuel_abs="50.735957" electricity_abs="0"/>
    </tripinfo>
    <tripinfo id="N_R.2" depart="22.80" departLane="a3i_0" departPos="4.90" departSpeed="0.00" departDelay="0.00" arrival="49.80" arrivalLane="a4o_0" arrivalPos="176.18" arrivalSpeed="19.51" duration="27.00" routeLength="365.95" waitingTime="0.00" waitingCount="0" stopTime="0.00" timeLoss="4.93" rerouteNo="0" devices="tripinfo_N_R.2 emissions_N_R.2" vType="car" speedFactor="1.03" vaporized="">
        <emissions CO_abs="2096.551150" CO2_abs="131136.230419" HC_abs="12.670481" PMx_abs="2.649846" NOx_abs="55.351280" fuel_abs="56.369454" electricity_abs="0"/>
    </tripinfo>
    <tripinfo id="S_S.1" depart="6.90" departLane="a1i_0" departPos="4.90" departSpeed="0.00" departDelay="0.00" arrival="50.50" arrivalLane="a3o_1" arrivalPos="178.50" arrivalSpeed="19.93" duration="43.60" routeLength="396.73" waitingTime="12.50" waitingCount="1" stopTime="0.00" timeLoss="22.05" rerouteNo="0" devices="tripinfo_S_S.1 emissions_S_S.1" vType="car" speedFactor="1.12" vaporized="">
        <emissions CO_abs="4771.436458" CO2_abs="191059.802593" HC_abs="26.291147" PMx_abs="4.107472" NOx_abs="82.480556" fuel_abs="82.128921" electricity_abs="0"/>
    </tripinfo>
    <tripinfo id="S_S.3" depart="11.50" departLane="a1i_0" departPos="4.90" departSpeed="0.00" departDelay="1.20" arrival="51.50" arrivalLane="a3o_2" arrivalPos="178.50" arrivalSpeed="19.97" duration="40.00" routeLength="396.73" waitingTime="5.80" waitingCount="1" stopTime="0.00" timeLoss="18.81" rerouteNo="0" devices="tripinfo_S_S.3 emissions_S_S.3" vType="car" speedFactor="1.16" vaporized="">
        <emissions CO_abs="2763.302741" CO2_abs="157879.883674" HC_abs="16.361126" PMx_abs="3.251091" NOx_abs="67.005880" fuel_abs="67.865441" electricity_abs="0"/>
    </tripinfo>
    <tripinfo id="S_S.0" depart="3.00" departLane="a1i_0" departPos="4.90" departSpeed="0.00" departDelay="0.00" arrival="52.10" arrivalLane="a3o_1" arrivalPos="178.50" arrivalSpeed="16.82" duration="49.10" routeLength="396.73" waitingTime="15.10" waitingCount="1" stopTime="0.00" timeLoss="22.43" rerouteNo="0" devices="tripinfo_S_S.0 emissions_S_S.0" vType="car" speedFactor="0.89" vaporized="">
        <emissions CO_abs="4533.899587" CO2_abs="165536.780006" HC_abs="24.500194" PMx_abs="3.359134" NOx_abs="70.212626" fuel_abs="71.158235" electricity_abs="0"/>
    </tripinfo>
    <tripinfo id="N_S.1" depart="25.80" departLane="a3i_0" departPos="4.90" departSpeed="0.00" departDelay="0.00" arrival="52.50" arrivalLane="a1o_1" arrivalPos="174.27" arrivalSpeed="18.89" duration="26.70" routeLength="392.77" waitingTime="0.00" waitingCount="0" stopTime="0.00" timeLoss="3.19" rerouteNo="0" devices="tripinfo_N_S.1 emissions_N_S.1" vType="car" speedFactor="1.00" vaporized="">
        <emissions CO_abs="1504.217479" CO2_abs="107506.625214" HC_abs="9.373059" PMx_abs="2.025181" NOx_abs="43.884828" fuel_abs="46.212263" electricity_abs="0"/>
    </tripinfo>
    <tripinfo id="S_S.5" depart="18.40" departLane="a1i_0" departPos="4.90" departSpeed="0.00" departDelay="2.00" arrival="52.60" arrivalLane="a3o_2" arrivalPos="178.50" arrivalSpeed="19.89" duration="34.20" routeLength="396.73" waitingTime="0.00" waitingCount="0" stopTime="0.00" timeLoss="12.98" rerouteNo="0" devices="tripinfo_S_S.5 emissions_S_S.5" vType="car" speedFactor="1.15" vaporized="">
        <emissions CO_abs="2827.760431" CO2_abs="158394.452086" HC_abs="16.673457" PMx_abs="3.288342" NOx_abs="67.491436" fuel_abs="68.086629" electricity_abs="0"/>
    </tripinfo>
    <tripinfo id="S_S.2" depart="9.20" departLane="a1i_0" departPos="4.90" departSpeed="0.00" departDelay="0.30" arrival="53.30" arrivalLane="a3o_1" arrivalPos="178.50" arrivalSpeed="16.67" duration="44.10" routeLength="396.73" waitingTime="6.70" waitingCount="1" stopTime="0.00" timeLoss="17.22" rerouteNo="0" devices="tripinfo_S_S.2 emissions_S_S.2" vType="car" speedFactor="0.88" vaporized="">
        <emissions CO_abs="2203.030415" CO2_abs="127028.344538" HC_abs="13.033686" PMx_abs="2.435006" NOx_abs="52.939326" fuel_abs="54.603994" electricity_abs="0"/>
    </tripinfo>
    <tripinfo id="S_S.4" depart="13.80" departLane="a1i_0" departPos="4.90" departSpeed="0.00" departDelay="2.10" arrival="54.40" arrivalLane="a3o_1" arrivalPos="178.50" arrivalSpeed="18.92" duration="40.60" routeLength="396.73" waitingTime="3.80" waitingCount="1" stopTime="0.00" timeLoss="17.25" rerouteNo="0" devices="tripinfo_S_S.4 emissions_S_S.4" vType="car" speedFactor="1.01" vaporized="">
        <emissions CO_abs="2546.827626" CO2_abs="143437.390924" HC_abs="14.997690" PMx_abs="2.851725" NOx_abs="60.473107" fuel_abs="61.657424" electricity_abs="0"/>
    </tripinfo>
    <tripinfo id="S_S.6" depart="23.60" departLane="a1i_0" departPos="4.90" departSpeed="0.00" departDelay="0.00" arrival="55.50" arrivalLane="a3o_1" arrivalPos="178.50" arrivalSpeed="18.14" duration="31.90" routeLength="396.73" waitingTime="0.00" waitingCount="0" stopTime="0.00" timeLoss="7.28" rerouteNo="0" devices="tripinfo_S_S.6 emissions_S_S.6" vType="car" speedFactor="0.96" vaporized="">
        <emissions CO_abs="2008.892990" CO2_abs="128724.572062" HC_abs="12.187581" PMx_abs="2.464743" NOx_abs="53.552341" fuel_abs="55.332948" electricity_abs="0"/>
    </tripinfo>
    <tripinfo id="S_S.8" depart="29.80" departLane="a1i_0" departPos="4.90" departSpeed="0.00" departDelay="0.50" arrival="57.50" arrivalLane="a3o_2" arrivalPos="178.50" arrivalSpeed="18.38" duration="27.70" routeLength="396.73" waitingTime="0.00" waitingCount="0" stopTime="0.00" timeLoss="3.36" rerouteNo="0" devices="tripinfo_S_S.8 emissions_S_S.8" vType="car" speedFactor="0.97" vaporized="">
        <emissions CO_abs="1572.310360" CO2_abs="106586.719956" HC_abs="9.669594" PMx_abs="2.050787" NOx_abs="44.013139" fuel_abs="45.816818" electricity_abs="0"/>
    </tripinfo>
    <tripinfo id="S_S.7" depart="27.50" departLane="a1i_0" departPos="4.90" departSpeed="0.00" departDelay="0.40" arrival="57.90" arrivalLane="a3o_1" arrivalPos="178.50" arrivalSpeed="16.22" duration="30.40" routeLength="396.73" waitingTime="0.00" waitingCount="0" stopTime="0.00" timeLoss="2.81" rerouteNo="0" devices="tripinfo_S_S.7 emissions_S_S.7" vType="car" speedFactor="0.85" vaporized="">
        <emissions CO_abs="1310.637813" CO2_abs="96977.402402" HC_abs="8.225721" PMx_abs="1.676108" NOx_abs="38.854912" fuel_abs="41.686391" electricity_abs="0"/>
    </tripinfo>
    <tripinfo id="N_S.2" depart="29.50" departLane="a3i_0" departPos="4.90" departSpeed="0.00" departDelay="3.10" arrival="58.50" arrivalLane="a1o_1" arrivalPos="174.27" arrivalSpeed="17.10" duration="29.00" routeLength="392.77" waitingTime="0.00" waitingCount="0" stopTime="0.00" timeLoss="2.97" rerouteNo="0" devices="tripinfo_N_S.2 emissions_N_S.2" vType="car" speedFactor="0.90" vaporized="">
        <emissions CO_abs="1359.650348" CO2_abs="99711.793830" HC_abs="8.482536" PMx_abs="1.766233" NOx_abs="40.131916" fuel_abs="42.861735" electricity_abs="0"/>
    </tripinfo>
    <tripinfo id="S_R.1" depart="32.40" departLane="a1i_0" departPos="4.90" departSpeed="0.00" departDelay="1.40" arrival="59.80" arrivalLane="a2o_0" arrivalPos="181.00" arrivalSpeed="19.25" duration="27.40" routeLength="371.93" waitingTime="0.00" waitingCount="0" stopTime="0.00" timeLoss="4.88" rerouteNo="0" devices="tripinfo_S_R.1 emissions_S_R.1" vType="car" speedFactor="1.02" vaporized="">
        <emissions CO_abs="2062.153485" CO2_abs="131284.592393" HC_abs="12.506243" PMx_abs="2.622264" NOx_abs="55.165331" fuel_abs="56.433247" electricity_abs="0"/>
    </tripinfo>
    <tripinfo id="W_R.4" depart="33.10" departLane="a4i_0" departPos="4.90" departSpeed="0.00" departDelay="5.90" arrival="60.60" arrivalLane="a1o_0" arrivalPos="174.27" arrivalSpeed="19.31" duration="27.50" routeLength="355.03" waitingTime="0.00" waitingCount="0" stopTime="0.00" timeLoss="5.74" rerouteNo="0" devices="tripinfo_W_R.4 emissions_W_R.4" vType="car" speedFactor="1.02" vaporized="">
        <emissions CO_abs="2127.498121" CO2_abs="131772.864335" HC_abs="12.819224" PMx_abs="2.627088" NOx_abs="55.423186" fuel_abs="56.643182" electricity_abs="0"/>
    </tripinfo>
    <tripinfo id="N_S.3" depart="33.20" departLane="a3i_0" departPos="4.90" departSpeed="0.00" departDelay="5.00" arrival="62.10" arrivalLane="a1o_1" arrivalPos="174.27" arrivalSpeed="17.04" duration="28.90" routeLength="392.77" waitingTime="0.00" waitingCount="0" stopTime="0.00" timeLoss="2.88" rerouteNo="0" devices="tripinfo_N_S.3 emissions_N_S.3" vType="car" speedFactor="0.90" vaporized="">
        <emissions CO_abs="1364.984145" CO2_abs="97047.784532" HC_abs="8.497041" PMx_abs="1.759250" NOx_abs="39.430536" fuel_abs="41.716566" electricity_abs="0"/>
    </tripinfo>
    <tripinfo id="S_S.9" depart="34.70" departLane="a1i_0" departPos="4.90" departSpeed="0.00" departDelay="2.90" arrival="62.90" arrivalLane="a3o_1" arrivalPos="178.50" arrivalSpeed="17.80" duration="28.20" routeLength="396.73" waitingTime="0.00" waitingCount="0" stopTime="0.00" timeLoss="3.03" rerouteNo="0" devices="tripinfo_S_S.9 emissions_S_S.9" vType="car" speedFactor="0.94" vaporized="">
        <emissions CO_abs="1405.739791" CO2_abs="100936.684228" HC_abs="8.771510" PMx_abs="1.856559" NOx_abs="41.030253" fuel_abs="43.388194" electricity_abs="0"/>
    </tripinfo>
    <tripinfo id="N_S.4" depart="35.50" departLane="a3i_0" departPos="4.90" departSpeed="0.00" departDelay="6.90" arrival="63.30" arrivalLane="a1o_1" arrivalPos="174.27" arrivalSpeed="19.67" duration="27.80" routeLength="392.77" waitingTime="0.00" waitingCount="0" stopTime="0.00" timeLoss="6.57" rerouteNo="0" devices="tripinfo_N_S.4 emissions_N_S.4" vType="car" speedFactor="1.14" vaporized="">
        <emissions CO_abs="1764.303169" CO2_abs="120812.485369" HC_abs="10.900341" PMx_abs="2.339955" NOx_abs="50.059531" fuel_abs="51.931790" electricity_abs="0"/>
    </tripinfo>
    <tripinfo id="N_S.5" depart="37.80" departLane="a3i_0" departPos="4.90" departSpeed="0.00" departDelay="9.10" arrival="64.50" arrivalLane="a1o_1" arrivalPos="174.27" arrivalSpeed="19.37" duration="26.70" routeLength="392.77" waitingTime="0.00" waitingCount="0" stopTime="0.00" timeLoss="3.79" rerouteNo="0" devices="tripinfo_N_S.5 emissions_N_S.5" vType="car" speedFactor="1.02" vaporized="">
        <emissions CO_abs="1662.619207" CO2_abs="114883.052690" HC_abs="10.277878" PMx_abs="2.216058" NOx_abs="47.356268" fuel_abs="49.383013" electricity_abs="0"/>
    </tripinfo>
    <tripinfo id="S_S.10" depart="41.50" departLane="a1i_0" departPos="4.90" departSpeed="0.00" departDelay="0.10" arrival="67.00" arrivalLane="a3o_1" arrivalPos="178.50" arrivalSpeed="19.91" duration="25.50" routeLength="396.73" waitingTime="0.00" waitingCount="0" stopTime="0.00" timeLoss="3.49" rerouteNo="0" devices="tripinfo_S_S.10 emissions_S_S.10" vType="car" speedFactor="1.09" vaporized="">
        <emissions CO_abs="1579.709829" CO2_abs="113327.695782" HC_abs="9.866046" PMx_abs="2.174702" NOx_abs="46.249957" fuel_abs="48.714441" electricity_abs="0"/>
    </tripinfo>
    <tripinfo id="S_R.2" depart="39.20" departLane="a1i_0" departPos="4.90" departSpeed="0.00" departDelay="0.00" arrival="67.30" arrivalLane="a2o_0" arrivalPos="181.00" arrivalSpeed="18.57" duration="28.10" routeLength="371.93" waitingTime="0.00" waitingCount="0" stopTime="0.00" timeLoss="4.83" rerouteNo="0" devices="tripinfo_S_R.2 emissions_S_R.2" vType="car" speedFactor="0.98" vaporized="">
        <emissions CO_abs="1964.691627" CO2_abs="126490.319875" HC_abs="11.928581" PMx_abs="2.472335" NOx_abs="52.810290" fuel_abs="54.372469" electricity_abs="0"/>
    </tripinfo>
    <tripinfo id="N_R.3" depart="42.00" departLane="a3i_0" departPos="4.90" departSpeed="0.00" departDelay="10.40" arrival="69.90" arrivalLane="a4o_0" arrivalPos="176.18" arrivalSpeed="18.66" duration="27.90" routeLength="365.95" waitingTime="0.00" waitingCount="0" stopTime="0.00" timeLoss="4.80" rerouteNo="0" devices="tripinfo_N_R.3 emissions_N_R.3" vType="car" speedFactor="0.99" vaporized="">
        <emissions CO_abs="1966.811243" CO2_abs="125288.448198" HC_abs="11.919608" PMx_abs="2.461958" NOx_abs="52.434200" fuel_abs="53.855834" electricity_abs="0"/>
    </tripinfo>
    <tripinfo id="E_R.2" depart="43.10" departLane="a2i_0" departPos="4.90" departSpeed="0.00" departDelay="13.20" arrival="70.10" arrivalLane="a3o_0" arrivalPos="178.50" arrivalSpeed="19.96" duration="27.00" routeLength="363.97" waitingTime="0.00" waitingCount="0" stopTime="0.00" timeLoss="5.87" rerouteNo="0" devices="tripinfo_E_R.2 emissions_E_R.2" vType="car" speedFactor="1.08" vaporized="">
        <emissions CO_abs="2224.635777" CO2_abs="135903.809296" HC_abs="13.385655" PMx_abs="2.784147" NOx_abs="57.663527" fuel_abs="58.418801" electricity_abs="0"/>
    </tripinfo>
    <tripinfo id="S_R.3" depart="43.80" departLane="a1i_0" departPos="4.90" departSpeed="0.00" departDelay="1.20" arrival="71.70" arrivalLane="a2o_0" arrivalPos="181.00" arrivalSpeed="18.87" duration="27.90" routeLength="371.93" waitingTime="0.00" waitingCount="0" stopTime="0.00" timeLoss="4.99" rerouteNo="0" devices="tripinfo_S_R.3 emissions_S_R.3" vType="car" speedFactor="1.00" vaporized="">
        <emissions CO_abs="2025.259606" CO2_abs="131858.900137" HC_abs="12.306353" PMx_abs="2.577005" NOx_abs="54.941680" fuel_abs="56.680166" electricity_abs="0"/>
    </tripinfo>
    <tripinfo id="N_R.4" depart="45.60" departLane="a3i_0" departPos="4.90" departSpeed="0.00" departDelay="7.60" arrival="74.00" arrivalLane="a4o_0" arrivalPos="176.18" arrivalSpeed="18.14" duration="28.40" routeLength="365.95" waitingTime="0.00" waitingCount="0" stopTime="0.00" timeLoss="4.62" rerouteNo="0" devices="tripinfo_N_R.4 emissions_N_R.4" vType="car" speedFactor="0.96" vaporized="">
        <emissions CO_abs="1900.948954" CO2_abs="123840.171476" HC_abs="11.571080" PMx_abs="2.389143" NOx_abs="51.479300" fuel_abs="53.233321" electricity_abs="0"/>
    </tripinfo>
    <tripinfo id="E_S.0" depart="4.00" departLane="a2i_0" departPos="4.90" departSpeed="0.00" departDelay="2.00" arrival="75.10" arrivalLane="a4o_1" arrivalPos="176.18" arrivalSpeed="19.93" duration="71.10" routeLength="395.21" waitingTime="40.10" waitingCount="1" stopTime="0.00" timeLoss="49.12" rerouteNo="0" devices="tripinfo_E_S.0 emissions_E_S.0" vType="car" speedFactor="1.08" vaporized="">
        <emissions CO_abs="9134.918630" CO2_abs="254475.918491" HC_abs="47.605696" PMx_abs="5.687503" NOx_abs="111.429244" fuel_abs="109.390983" electricity_abs="0"/>
    </tripinfo>
    <tripinfo id="E_R.3" depart="45.40" departLane="a2i_0" departPos="4.90" departSpeed="0.00" departDelay="11.90" arrival="75.30" arrivalLane="a3o_0" arrivalPos="178.50" arrivalSpeed="17.12" duration="29.90" routeLength="363.97" waitingTime="0.00" waitingCount="0" stopTime="0.00" timeLoss="5.04" rerouteNo="0" devices="tripinfo_E_R.3 emissions_E_R.3" vType="car" speedFactor="0.91" vaporized="">
        <emissions CO_abs="1889.919280" CO2_abs="116805.393782" HC_abs="11.374685" PMx_abs="2.235136" NOx_abs="48.665607" fuel_abs="50.209479" electricity_abs="0"/>
    </tripinfo>
    <tripinfo id="W_S.0" depart="0.00" departLane="a4i_0" departPos="4.90" departSpeed="0.00" departDelay="0.00" arrival="75.40" arrivalLane="a2o_1" arrivalPos="181.00" arrivalSpeed="19.91" duration="75.40" routeLength="395.22" waitingTime="44.20" waitingCount="1" stopTime="0.00" timeLoss="53.13" rerouteNo="0" devices="tripinfo_W_S.0 emissions_W_S.0" vType="car" speedFactor="1.06" vaporized="">
        <emissions CO_abs="9793.645889" CO2_abs="264213.404451" HC_abs="50.845694" PMx_abs="5.929377" NOx_abs="115.882738" fuel_abs="113.577041" electricity_abs="0"/>
    </tripinfo>
    <tripinfo id="W_S.1" depart="3.00" departLane="a4i_0" departPos="4.90" departSpeed="0.00" departDelay="0.80" arrival="75.50" arrivalLane="a2o_2" arrivalPos="181.00" arrivalSpeed="19.50" duration="72.50" routeLength="395.22" waitingTime="40.80" waitingCount="1" stopTime="0.00" timeLoss="49.72" rerouteNo="0" devices="tripinfo_W_S.1 emissions_W_S.1" vType="car" speedFactor="1.03" vaporized="">
        <emissions CO_abs="9251.192437" CO2_abs="257029.478448" HC_abs="48.210616" PMx_abs="5.732915" NOx_abs="112.534300" fuel_abs="110.488712" electricity_abs="0"/>
    </tripinfo>
    <tripinfo id="E_S.2" depart="8.70" departLane="a2i_0" departPos="4.90" departSpeed="0.00" departDelay="4.00" arrival="76.20" arrivalLane="a4o_2" arrivalPos="176.18" arrivalSpeed="17.72" duration="67.50" routeLength="395.21" waitingTime="34.10" waitingCount="1" stopTime="0.00" timeLoss="42.37" rerouteNo="0" devices="tripinfo_E_S.2 emissions_E_S.2" vType="car" speedFactor="0.94" vaporized="">
        <emissions CO_abs="7978.451173" CO2_abs="226266.936030" HC_abs="41.672971" PMx_abs="4.979749" NOx_abs="98.863772" fuel_abs="97.264820" electricity_abs="0"/>
    </tripinfo>
    <tripinfo id="W_S.3" depart="16.80" departLane="a4i_0" departPos="4.90" departSpeed="0.00" departDelay="2.20" arrival="76.20" arrivalLane="a2o_3" arrivalPos="181.00" arrivalSpeed="18.01" duration="59.40" routeLength="395.22" waitingTime="26.10" waitingCount="1" stopTime="0.00" timeLoss="34.64" rerouteNo="0" devices="tripinfo_W_S.3 emissions_W_S.3" vType="car" speedFactor="0.95" vaporized="">
        <emissions CO_abs="6668.047394" CO2_abs="208735.195817" HC_abs="35.289061" PMx_abs="4.493423" NOx_abs="90.377065" fuel_abs="89.728071" electricity_abs="0"/>
    </tripinfo>
    <tripinfo id="W_S.4" depart="21.40" departLane="a4i_0" departPos="4.90" departSpeed="0.00" departDelay="3.70" arrival="77.10" arrivalLane="a2o_2" arrivalPos="181.00" arrivalSpeed="18.80" duration="55.70" routeLength="395.22" waitingTime="20.00" waitingCount="1" stopTime="0.00" timeLoss="32.11" rerouteNo="0" devices="tripinfo_W_S.4 emissions_W_S.4" vType="car" speedFactor="0.99" vaporized="">
        <emissions CO_abs="4591.610944" CO2_abs="175466.194548" HC_abs="25.063764" PMx_abs="3.688260" NOx_abs="75.294431" fuel_abs="75.426153" electricity_abs="0"/>
    </tripinfo>
    <tripinfo id="W_S.2" depart="7.60" departLane="a4i_0" departPos="4.90" departSpeed="0.00" departDelay="1.00" arrival="77.20" arrivalLane="a2o_1" arrivalPos="181.00" arrivalSpeed="19.06" duration="69.60" routeLength="395.22" waitingTime="34.20" waitingCount="1" stopTime="0.00" timeLoss="46.67" rerouteNo="0" devices="tripinfo_W_S.2 emissions_W_S.2" vType="car" speedFactor="1.03" vaporized="">
        <emissions CO_abs="6942.361769" CO2_abs="214256.008482" HC_abs="36.671263" PMx_abs="4.650623" NOx_abs="92.934993" fuel_abs="92.101312" electricity_abs="0"/>
    </tripinfo>
    <tripinfo id="E_S.3" depart="13.30" departLane="a2i_0" departPos="4.90" departSpeed="0.00" departDelay="6.50" arrival="77.30" arrivalLane="a4o_2" arrivalPos="176.18" arrivalSpeed="19.79" duration="64.00" routeLength="395.21" waitingTime="28.10" waitingCount="1" stopTime="0.00" timeLoss="41.48" rerouteNo="0" devices="tripinfo_E_S.3 emissions_E_S.3" vType="car" speedFactor="1.05" vaporized="">
        <emissions CO_abs="6090.540189" CO2_abs="208465.645259" HC_abs="32.648573" PMx_abs="4.463781" NOx_abs="89.996777" fuel_abs="89.611758" electricity_abs="0"/>
    </tripinfo>
    <tripinfo id="W_S.6" depart="26.20" departLane="a4i_0" departPos="4.90" departSpeed="0.00" departDelay="1.10" arrival="77.30" arrivalLane="a2o_3" arrivalPos="181.00" arrivalSpeed="19.96" duration="51.10" routeLength="395.22" waitingTime="15.30" waitingCount="1" stopTime="0.00" timeLoss="29.19" rerouteNo="0" devices="tripinfo_W_S.6 emissions_W_S.6" vType="car" speedFactor="1.09" vaporized="">
        <emissions CO_abs="4138.497521" CO2_abs="180215.087814" HC_abs="23.141090" PMx_abs="3.794844" NOx_abs="77.389069" fuel_abs="77.467015" electricity_abs="0"/>
    </tripinfo>
    <tripinfo id="E_R.4" depart="47.70" departLane="a2i_0" departPos="4.90" departSpeed="0.00" departDelay="14.00" arrival="77.90" arrivalLane="a3o_0" arrivalPos="178.50" arrivalSpeed="17.28" duration="30.20" routeLength="363.97" waitingTime="0.00" waitingCount="0" stopTime="0.00" timeLoss="5.46" rerouteNo="0" devices="tripinfo_E_R.4 emissions_E_R.4" vType="car" speedFactor="0.91" vaporized="">
        <emissions CO_abs="1869.191917" CO2_abs="114342.630200" HC_abs="11.205897" PMx_abs="2.205586" NOx_abs="47.782653" fuel_abs="49.150829" electricity_abs="0"/>
    </tripinfo>
    <tripinfo id="E_S.1" depart="6.40" departLane="a2i_0" departPos="4.90" departSpeed="0.00" departDelay="4.10" arrival="78.30" arrivalLane="a4o_1" arrivalPos="176.18" arrivalSpeed="15.72" duration="71.90" routeLength="395.21" waitingTime="33.60" waitingCount="1" stopTime="0.00" timeLoss="43.49" rerouteNo="0" devices="tripinfo_E_S.1 emissions_E_S.1" vType="car" speedFactor="0.83" vaporized="">
        <emissions CO_abs="6425.644075" CO2_abs="187986.168980" HC_abs="33.673854" PMx_abs="3.975043" NOx_abs="81.101235" fuel_abs="80.809232" electricity_abs="0"/>
    </tripinfo>
    <tripinfo id="W_S.5" depart="23.90" departLane="a4i_0" departPos="4.90" departSpeed="0.00" departDelay="0.00" arrival="78.30" arrivalLane="a2o_1" arrivalPos="181.00" arrivalSpeed="19.98" duration="54.40" routeLength="395.22" waitingTime="18.90" waitingCount="1" stopTime="0.00" timeLoss="32.49" rerouteNo="0" devices="tripinfo_W_S.5 emissions_W_S.5" vType="car" speedFactor="1.09" vaporized="">
        <emissions CO_abs="4701.504456" CO2_abs="188113.477829" HC_abs="25.882818" PMx_abs="3.993559" NOx_abs="80.964652" fuel_abs="80.862485" electricity_abs="0"/>
    </tripinfo>
    <tripinfo id="E_S.5" depart="17.90" departLane="a2i_0" departPos="4.90" departSpeed="0.00" departDelay="6.90" arrival="78.40" arrivalLane="a4o_2" arrivalPos="176.18" arrivalSpeed="19.30" duration="60.50" routeLength="395.21" waitingTime="24.00" waitingCount="1" stopTime="0.00" timeLoss="37.31" rerouteNo="0" devices="tripinfo_E_S.5 emissions_E_S.5" vType="car" speedFactor="1.02" vaporized="">
        <emissions CO_abs="5373.146682" CO2_abs="194990.769784" HC_abs="29.059388" PMx_abs="4.100187" NOx_abs="83.663166" fuel_abs="83.819243" electricity_abs="0"/>
    </tripinfo>
    <tripinfo id="W_S.8" depart="30.80" departLane="a4i_0" departPos="4.90" departSpeed="0.00" departDelay="3.60" arrival="78.40" arrivalLane="a2o_3" arrivalPos="181.00" arrivalSpeed="19.96" duration="47.60" routeLength="395.22" waitingTime="12.10" waitingCount="1" stopTime="0.00" timeLoss="26.54" rerouteNo="0" devices="tripinfo_W_S.8 emissions_W_S.8" vType="car" speedFactor="1.17" vaporized="">