<?xml version="1.0" encoding="UTF-8"?>

<!-- generated on 12/04/19 22:54:03 by Eclipse SUMO GUI Version 1.3.1
<configuration xmlns:xsi="http://www.w3.org/2001/XMLSchema-instance" xsi:noNamespaceSchemaLocation="http://sumo.dlr.de/xsd/sumoConfiguration.xsd">

    <input>
        <net-file value="../cfg9_S12W22N12E22/intersection.net.xml"/>
        <route-files value="../cfg9_S12W22N12E22/intersection.rou.xml"/>
        <additional-files value="../cfg9_S12W22N12E22/intersection.det.xml"/>
    </input>

    <output>
        <tripinfo-output value="../result/tripinfo103.xml"/>
    </output>

    <time>
        <begin value="0"/>
        <end value="3800"/>
        <step-length value="0.1"/>
    </time>

    <processing>
        <collision.action value="none"/>
    </processing>

    <emissions>
        <device.emissions.probability value="1"/>
    </emissions>

    <traci_server>
        <remote-port value="62137"/>
    </traci_server>

    <gui_only>
        <tracker-interval value="0.1"/>
    </gui_only>

</configuration>
-->

<tripinfos xmlns:xsi="http://www.w3.org/2001/XMLSchema-instance" xsi:noNamespaceSchemaLocation="http://sumo.dlr.de/xsd/tripinfo_file.xsd">
    <tripinfo id="E_S.0" depart="6.80" departLane="a2i_0" departPos="4.90" departSpeed="0.00" departDelay="0.00" arrival="32.80" arrivalLane="a4o_1" arrivalPos="176.18" arrivalSpeed="19.77" duration="26.00" routeLength="395.21" waitingTime="0.00" waitingCount="0" stopTime="0.00" timeLoss="3.44" rerouteNo="0" devices="tripinfo_E_S.0 emissions_E_S.0" vType="car" speedFactor="1.05" vaporized="">
        <emissions CO_abs="1593.234484" CO2_abs="111961.576606" HC_abs="9.892274" PMx_abs="2.151856" NOx_abs="45.862244" fuel_abs="48.127216" electricity_abs="0"/>
    </tripinfo>
    <tripinfo id="E_S.1" depart="11.00" departLane="a2i_0" departPos="4.90" departSpeed="0.00" departDelay="0.00" arrival="36.40" arrivalLane="a4o_1" arrivalPos="176.18" arrivalSpeed="19.97" duration="25.40" routeLength="395.21" waitingTime="0.00" waitingCount="0" stopTime="0.00" timeLoss="3.47" rerouteNo="0" devices="tripinfo_E_S.1 emissions_E_S.1" vType="car" speedFactor="1.09" vaporized="">
        <emissions CO_abs="1592.707480" CO2_abs="113276.178397" HC_abs="9.908012" PMx_abs="2.177136" NOx_abs="46.327201" fuel_abs="48.692292" electricity_abs="0"/>
    </tripinfo>
    <tripinfo id="N_R.0" depart="8.60" departLane="a3i_0" departPos="4.90" departSpeed="0.00" departDelay="0.00" arrival="37.40" arrivalLane="a4o_0" arrivalPos="176.18" arrivalSpeed="17.74" duration="28.80" routeLength="365.95" waitingTime="0.00" waitingCount="0" stopTime="0.00" timeLoss="4.55" rerouteNo="0" devices="tripinfo_N_R.0 emissions_N_R.0" vType="car" speedFactor="0.94" vaporized="">
        <emissions CO_abs="1864.308549" CO2_abs="118233.590670" HC_abs="11.299228" PMx_abs="2.295692" NOx_abs="49.403813" fuel_abs="50.823313" electricity_abs="0"/>
    </tripinfo>
    <tripinfo id="E_S.2" depart="13.90" departLane="a2i_0" departPos="4.90" departSpeed="0.00" departDelay="0.00" arrival="40.10" arrivalLane="a4o_1" arrivalPos="176.18" arrivalSpeed="19.45" duration="26.20" routeLength="395.21" waitingTime="0.00" waitingCount="0" stopTime="0.00" timeLoss="3.25" rerouteNo="0" devices="tripinfo_E_S.2 emissions_E_S.2" vType="car" speedFactor="1.03" vaporized="">
        <emissions CO_abs="1542.978422" CO2_abs="109463.156160" HC_abs="9.597823" PMx_abs="2.085187" NOx_abs="44.808294" fuel_abs="47.053264" electricity_abs="0"/>
    </tripinfo>
    <tripinfo id="S_R.0" depart="15.20" departLane="a1i_0" departPos="4.90" departSpeed="0.00" departDelay="0.00" arrival="41.80" arrivalLane="a2o_0" arrivalPos="181.00" arrivalSpeed="19.94" duration="26.60" routeLength="371.93" waitingTime="0.00" waitingCount="0" stopTime="0.00" timeLoss="5.67" rerouteNo="0" devices="tripinfo_S_R.0 emissions_S_R.0" vType="car" speedFactor="1.12" vaporized="">
        <emissions CO_abs="2547.495183" CO2_abs="157714.202693" HC_abs="15.397746" PMx_abs="3.288102" NOx_abs="67.227742" fuel_abs="67.793977" electricity_abs="0"/>
    </tripinfo>
    <tripinfo id="W_R.0" depart="16.90" departLane="a4i_0" departPos="4.90" departSpeed="0.00" departDelay="1.60" arrival="44.60" arrivalLane="a1o_0" arrivalPos="174.27" arrivalSpeed="18.78" duration="27.70" routeLength="355.03" waitingTime="0.00" waitingCount="0" stopTime="0.00" timeLoss="5.41" rerouteNo="0" devices="tripinfo_W_R.0 emissions_W_R.0" vType="car" speedFactor="0.99" vaporized="">
        <emissions CO_abs="2023.288538" CO2_abs="125710.372276" HC_abs="12.192692" PMx_abs="2.481898" NOx_abs="52.744761" fuel_abs="54.037220" electricity_abs="0"/>
    </tripinfo>
    <tripinfo id="S_S.1" depart="6.90" departLane="a1i_0" departPos="4.90" departSpeed="0.00" departDelay="0.00" arrival="47.10" arrivalLane="a3o_2" arrivalPos="178.50" arrivalSpeed="16.80" duration="40.20" routeLength="396.73" waitingTime="5.90" waitingCount="1" stopTime="0.00" timeLoss="13.52" rerouteNo="0" devices="tripinfo_S_S.1 emissions_S_S.1" vType="car" speedFactor="0.89" vaporized="">
        <emissions CO_abs="3134.311705" CO2_abs="143669.484888" HC_abs="17.659479" PMx_abs="2.869333" NOx_abs="60.721343" fuel_abs="61.757663" electricity_abs="0"/>
    </tripinfo>
    <tripinfo id="S_S.0" depart="3.00" departLane="a1i_0" departPos="4.90" departSpeed="0.00" departDelay="0.00" arrival="47.20" arrivalLane="a3o_1" arrivalPos="178.50" arrivalSpeed="17.06" duration="44.20" routeLength="396.73" waitingTime="11.50" waitingCount="1" stopTime="0.00" timeLoss="22.12" rerouteNo="0" devices="tripinfo_S_S.0 emissions_S_S.0" vType="car" speedFactor="1.08" vaporized="">
        <emissions CO_abs="4336.376972" CO2_abs="175458.175449" HC_abs="23.907335" PMx_abs="3.662069" NOx_abs="75.142755" fuel_abs="75.422526" electricity_abs="0"/>
    </tripinfo>
    <tripinfo id="S_S.2" depart="9.20" departLane="a1i_0" departPos="4.90" departSpeed="0.00" departDelay="0.30" arrival="48.50" arrivalLane="a3o_1" arrivalPos="178.50" arrivalSpeed="16.22" duration="39.30" routeLength="396.73" waitingTime="1.60" waitingCount="1" stopTime="0.00" timeLoss="11.82" rerouteNo="0" devices="tripinfo_S_S.2 emissions_S_S.2" vType="car" speedFactor="0.86" vaporized="">
        <emissions CO_abs="2142.192375" CO2_abs="124391.068326" HC_abs="12.664080" PMx_abs="2.336650" NOx_abs="51.519909" fuel_abs="53.470400" electricity_abs="0"/>
    </tripinfo>
    <tripinfo id="W_L.0" depart="2.40" departLane="a4i_0" departPos="4.90" departSpeed="0.00" departDelay="1.20" arrival="48.90" arrivalLane="a3o_2" arrivalPos="178.50" arrivalSpeed="17.79" duration="46.50" routeLength="395.12" waitingTime="11.00" waitingCount="1" stopTime="0.00" timeLoss="20.87" rerouteNo="0" devices="tripinfo_W_L.0 emissions_W_L.0" vType="car" speedFactor="0.94" vaporized="">
        <emissions CO_abs="4432.531131" CO2_abs="177674.367935" HC_abs="24.387431" PMx_abs="3.686320" NOx_abs="76.185897" fuel_abs="76.375223" electricity_abs="0"/>
    </tripinfo>
    <tripinfo id="N_R.1" depart="22.80" departLane="a3i_0" departPos="4.90" departSpeed="0.00" departDelay="0.00" arrival="50.10" arrivalLane="a4o_0" arrivalPos="176.18" arrivalSpeed="19.32" duration="27.30" routeLength="365.95" waitingTime="0.00" waitingCount="0" stopTime="0.00" timeLoss="4.95" rerouteNo="0" devices="tripinfo_N_R.1 emissions_N_R.1" vType="car" speedFactor="1.02" vaporized="">
        <emissions CO_abs="2045.270341" CO2_abs="130229.022992" HC_abs="12.411239" PMx_abs="2.592091" NOx_abs="54.676155" fuel_abs="55.979520" electricity_abs="0"/>
    </tripinfo>
    <tripinfo id="S_S.3" depart="17.50" departLane="a1i_0" departPos="4.90" departSpeed="0.00" departDelay="1.10" arrival="54.30" arrivalLane="a3o_2" arrivalPos="178.50" arrivalSpeed="17.56" duration="36.80" routeLength="396.73" waitingTime="2.80" waitingCount="1" stopTime="0.00" timeLoss="11.30" rerouteNo="0" devices="tripinfo_S_S.3 emissions_S_S.3" vType="car" speedFactor="0.93" vaporized="">
        <emissions CO_abs="2730.492323" CO2_abs="141485.637139" HC_abs="15.769510" PMx_abs="2.805294" NOx_abs="59.579855" fuel_abs="60.818649" electricity_abs="0"/>
    </tripinfo>
    <tripinfo id="S_S.5" depart="29.40" departLane="a1i_0" departPos="4.90" departSpeed="0.00" departDelay="0.10" arrival="57.90" arrivalLane="a3o_2" arrivalPos="178.50" arrivalSpeed="17.65" duration="28.50" routeLength="396.73" waitingTime="0.00" waitingCount="0" stopTime="0.00" timeLoss="3.18" rerouteNo="0" devices="tripinfo_S_S.5 emissions_S_S.5" vType="car" speedFactor="0.93" vaporized="">
        <emissions CO_abs="1449.416816" CO2_abs="103191.842189" HC_abs="9.005807" PMx_abs="1.905670" NOx_abs="42.041737" fuel_abs="44.357577" electricity_abs="0"/>
    </tripinfo>
    <tripinfo id="S_R.1" depart="31.70" departLane="a1i_0" departPos="4.90" departSpeed="0.00" departDelay="0.70" arrival="58.30" arrivalLane="a2o_0" arrivalPos="181.00" arrivalSpeed="19.96" duration="26.60" routeLength="371.93" waitingTime="0.00" waitingCount="0" stopTime="0.00" timeLoss="6.19" rerouteNo="0" devices="tripinfo_S_R.1 emissions_S_R.1" vType="car" speedFactor="1.18" vaporized="">
        <emissions CO_abs="2836.931652" CO2_abs="171893.160761" HC_abs="17.067320" PMx_abs="3.657211" NOx_abs="73.918779" fuel_abs="73.888771" electricity_abs="0"/>
    </tripinfo>
    <tripinfo id="S_S.4" depart="27.10" departLane="a1i_0" departPos="4.90" departSpeed="0.00" departDelay="0.00" arrival="58.40" arrivalLane="a3o_1" arrivalPos="178.50" arrivalSpeed="15.68" duration="31.30" routeLength="396.73" waitingTime="0.00" waitingCount="0" stopTime="0.00" timeLoss="2.74" rerouteNo="0" devices="tripinfo_S_S.4 emissions_S_S.4" vType="car" speedFactor="0.83" vaporized="">
        <emissions CO_abs="1290.958994" CO2_abs="95089.336172" HC_abs="8.061359" PMx_abs="1.609333" NOx_abs="37.939245" fuel_abs="40.874840" electricity_abs="0"/>
    </tripinfo>
    <tripinfo id="E_R.0" depart="33.70" departLane="a2i_0" departPos="4.90" departSpeed="0.00" departDelay="0.00" arrival="61.60" arrivalLane="a3o_0" arrivalPos="178.50" arrivalSpeed="19.06" duration="27.90" routeLength="363.97" waitingTime="0.00" waitingCount="0" stopTime="0.00" timeLoss="5.45" rerouteNo="0" devices="tripinfo_E_R.0 emissions_E_R.0" vType="car" speedFactor="1.01" vaporized="">
        <emissions CO_abs="2099.593040" CO2_abs="130990.793684" HC_abs="12.652660" PMx_abs="2.601768" NOx_abs="55.024407" fuel_abs="56.307004" electricity_abs="0"/>
    </tripinfo>
    <tripinfo id="N_S.1" depart="40.30" departLane="a3i_0" departPos="4.90" departSpeed="0.00" departDelay="0.00" arrival="65.80" arrivalLane="a1o_2" arrivalPos="174.27" arrivalSpeed="19.98" duration="25.50" routeLength="393.21" waitingTime="0.00" waitingCount="0" stopTime="0.00" timeLoss="3.79" rerouteNo="0" devices="tripinfo_N_S.1 emissions_N_S.1" vType="car" speedFactor="1.10" vaporized="">
        <emissions CO_abs="1761.543930" CO2_abs="121019.026624" HC_abs="10.878047" PMx_abs="2.390007" NOx_abs="50.046340" fuel_abs="52.020533" electricity_abs="0"/>
    </tripinfo>
    <tripinfo id="E_R.1" depart="38.30" departLane="a2i_0" departPos="4.90" departSpeed="0.00" departDelay="1.10" arrival="66.10" arrivalLane="a3o_0" arrivalPos="178.50" arrivalSpeed="19.26" duration="27.80" routeLength="363.97" waitingTime="0.00" waitingCount="0" stopTime="0.00" timeLoss="5.66" rerouteNo="0" devices="tripinfo_E_R.1 emissions_E_R.1" vType="car" speedFactor="1.02" vaporized="">
        <emissions CO_abs="2109.929239" CO2_abs="131008.696993" HC_abs="12.733143" PMx_abs="2.617697" NOx_abs="55.144658" fuel_abs="56.314689" electricity_abs="0"/>
    </tripinfo>
    <tripinfo id="N_S.0" depart="25.80" departLane="a3i_0" departPos="4.90" departSpeed="0.00" departDelay="0.00" arrival="66.60" arrivalLane="a1o_1" arrivalPos="174.27" arrivalSpeed="16.87" duration="40.80" routeLength="393.21" waitingTime="7.00" waitingCount="1" stopTime="0.00" timeLoss="14.49" rerouteNo="0" devices="tripinfo_N_S.0 emissions_N_S.0" vType="car" speedFactor="0.89" vaporized="">
        <emissions CO_abs="3245.014202" CO2_abs="143946.086452" HC_abs="18.172541" PMx_abs="2.859566" NOx_abs="60.690950" fuel_abs="61.876682" electricity_abs="0"/>
    </tripinfo>
    <tripinfo id="N_L.0" depart="6.60" departLane="a3i_0" departPos="4.90" departSpeed="0.00" departDelay="0.00" arrival="66.80" arrivalLane="a2o_2" arrivalPos="181.00" arrivalSpeed="19.48" duration="60.20" routeLength="393.34" waitingTime="27.30" waitingCount="1" stopTime="0.00" timeLoss="36.82" rerouteNo="0" devices="tripinfo_N_L.0 emissions_N_L.0" vType="car" speedFactor="1.03" vaporized="">
        <emissions CO_abs="7179.905661" CO2_abs="228109.499228" HC_abs="38.089111" PMx_abs="4.961007" NOx_abs="99.062329" fuel_abs="98.056251" electricity_abs="0"/>
    </tripinfo>
    <tripinfo id="N_L.1" depart="35.30" departLane="a3i_0" departPos="4.90" departSpeed="0.00" departDelay="0.00" arrival="68.40" arrivalLane="a2o_2" arrivalPos="181.00" arrivalSpeed="19.99" duration="33.10" routeLength="393.34" waitingTime="0.00" waitingCount="0" stopTime="0.00" timeLoss="11.58" rerouteNo="0" devices="tripinfo_N_L.1 emissions_N_L.1" vType="car" speedFactor="1.17" vaporized="">
        <emissions CO_abs="2916.427468" CO2_abs="165325.175615" HC_abs="17.227678" PMx_abs="3.432591" NOx_abs="70.649378" fuel_abs="71.065780" electricity_abs="0"/>
    </tripinfo>
    <tripinfo id="N_R.2" depart="47.20" departLane="a3i_0" departPos="4.90" departSpeed="0.00" departDelay="0.00" arrival="74.20" arrivalLane="a4o_0" arrivalPos="176.18" arrivalSpeed="19.70" duration="27.00" routeLength="365.95" waitingTime="0.00" waitingCount="0" stopTime="0.00" timeLoss="5.06" rerouteNo="0" devices="tripinfo_N_R.2 emissions_N_R.2" vType="car" speedFactor="1.04" vaporized="">
        <emissions CO_abs="2093.826259" CO2_abs="134170.842545" HC_abs="12.728935" PMx_abs="2.679195" NOx_abs="56.309528" fuel_abs="57.673912" electricity_abs="0"/>
    </tripinfo>
    <tripinfo id="N_S.2" depart="54.60" departLane="a3i_0" departPos="4.90" departSpeed="0.00" departDelay="0.00" arrival="81.00" arrivalLane="a1o_1" arrivalPos="174.27" arrivalSpeed="19.27" duration="26.40" routeLength="393.21" waitingTime="0.00" waitingCount="0" stopTime="0.00" timeLoss="3.29" rerouteNo="0" devices="tripinfo_N_S.2 emissions_N_S.2" vType="car" speedFactor="1.02" vaporized="">
        <emissions CO_abs="1537.593421" CO2_abs="109073.984337" HC_abs="9.582378" PMx_abs="2.077042" NOx_abs="44.637509" fuel_abs="46.885982" electricity_abs="0"/>
    </tripinfo>
    <tripinfo id="N_R.3" depart="51.90" departLane="a3i_0" departPos="4.90" departSpeed="0.00" departDelay="0.00" arrival="82.10" arrivalLane="a4o_0" arrivalPos="176.18" arrivalSpeed="16.60" duration="30.20" routeLength="365.95" waitingTime="0.00" waitingCount="0" stopTime="0.00" timeLoss="4.26" rerouteNo="0" devices="tripinfo_N_R.3 emissions_N_R.3" vType="car" speedFactor="0.88" vaporized="">
        <emissions CO_abs="1791.481639" CO2_abs="113028.860867" HC_abs="10.819135" PMx_abs="2.138441" NOx_abs="46.944004" fuel_abs="48.586116" electricity_abs="0"/>
    </tripinfo>
    <tripinfo id="N_R.4" depart="56.90" departLane="a3i_0" departPos="4.90" departSpeed="0.00" departDelay="2.30" arrival="83.70" arrivalLane="a4o_0" arrivalPos="176.18" arrivalSpeed="19.92" duration="26.80" routeLength="365.95" waitingTime="0.00" waitingCount="0" stopTime="0.00" timeLoss="5.62" rerouteNo="0" devices="tripinfo_N_R.4 emissions_N_R.4" vType="car" speedFactor="1.10" vaporized="">
        <emissions CO_abs="2297.084999" CO2_abs="138821.284958" HC_abs="13.776578" PMx_abs="2.886340" NOx_abs="59.262860" fuel_abs="59.672834" electricity_abs="0"/>
    </tripinfo>
    <tripinfo id="E_S.5" depart="22.80" departLane="a2i_0" departPos="4.90" departSpeed="0.00" departDelay="0.50" arrival="85.10" arrivalLane="a4o_1" arrivalPos="176.18" arrivalSpeed="19.98" duration="62.30" routeLength="395.21" waitingTime="31.50" waitingCount="1" stopTime="0.00" timeLoss="41.17" rerouteNo="0" devices="tripinfo_E_S.5 emissions_E_S.5" vType="car" speedFactor="1.16" vaporized="">
        <emissions CO_abs="7884.407631" CO2_abs="239851.279800" HC_abs="41.622656" PMx_abs="5.345054" NOx_abs="104.952468" fuel_abs="103.103730" electricity_abs="0"/>
    </tripinfo>
    <tripinfo id="E_S.3" depart="18.20" departLane="a2i_0" departPos="4.90" departSpeed="0.00" departDelay="0.00" arrival="86.00" arrivalLane="a4o_1" arrivalPos="176.18" arrivalSpeed="17.80" duration="67.80" routeLength="395.21" waitingTime="34.90" waitingCount="1" stopTime="0.00" timeLoss="42.74" rerouteNo="0" devices="tripinfo_E_S.3 emissions_E_S.3" vType="car" speedFactor="0.94" vaporized="">
        <emissions CO_abs="7930.653794" CO2_abs="222994.668818" HC_abs="41.355865" PMx_abs="4.855364" NOx_abs="96.891793" fuel_abs="95.858335" electricity_abs="0"/>
    </tripinfo>
    <tripinfo id="E_S.4" depart="20.50" departLane="a2i_0" departPos="4.90" departSpeed="0.00" departDelay="0.20" arrival="87.20" arrivalLane="a4o_1" arrivalPos="176.18" arrivalSpeed="17.77" duration="66.70" routeLength="395.21" waitingTime="30.40" waitingCount="1" stopTime="0.00" timeLoss="41.48" rerouteNo="0" devices="tripinfo_E_S.4 emissions_E_S.4" vType="car" speedFactor="0.94" vaporized="">
        <emissions CO_abs="6182.293840" CO2_abs="196603.189335" HC_abs="32.787994" PMx_abs="4.198099" NOx_abs="84.859573" fuel_abs="84.512912" electricity_abs="0"/>
    </tripinfo>
    <tripinfo id="S_R.2" depart="61.00" departLane="a1i_0" departPos="4.90" departSpeed="0.00" departDelay="0.00" arrival="87.70" arrivalLane="a2o_0" arrivalPos="181.00" arrivalSpeed="19.91" duration="26.70" routeLength="371.93" waitingTime="0.00" waitingCount="0" stopTime="0.00" timeLoss="6.00" rerouteNo="0" devices="tripinfo_S_R.2 emissions_S_R.2" vType="car" speedFactor="1.14" vaporized="">
        <emissions CO_abs="2671.847012" CO2_abs="164327.445205" HC_abs="16.111206" PMx_abs="3.442995" NOx_abs="70.200685" fuel_abs="70.636683" electricity_abs="0"/>
    </tripinfo>
    <tripinfo id="S_L.0" depart="19.80" departLane="a1i_0" departPos="4.90" departSpeed="0.00" departDelay="1.80" arrival="88.20" arrivalLane="a4o_2" arrivalPos="176.18" arrivalSpeed="16.65" duration="68.40" routeLength="390.41" waitingTime="33.30" waitingCount="1" stopTime="0.00" timeLoss="40.96" rerouteNo="0" devices="tripinfo_S_L.0 emissions_S_L.0" vType="car" speedFactor="0.88" vaporized="">
        <emissions CO_abs="7811.644256" CO2_abs="224386.666295" HC_abs="40.839378" PMx_abs="4.838059" NOx_abs="97.437861" fuel_abs="96.456613" electricity_abs="0"/>
    </tripinfo>
    <tripinfo id="E_S.6" depart="27.70" departLane="a2i_0" departPos="4.90" departSpeed="0.00" departDelay="0.00" arrival="88.60" arrivalLane="a4o_1" arrivalPos="176.18" arrivalSpeed="17.35" duration="60.90" routeLength="395.21" waitingTime="23.90" waitingCount="1" stopTime="0.00" timeLoss="35.24" rerouteNo="0" devices="tripinfo_E_S.6 emissions_E_S.6" vType="car" speedFactor="0.92" vaporized="">
        <emissions CO_abs="5682.159534" CO2_abs="205356.346429" HC_abs="30.766276" PMx_abs="4.443624" NOx_abs="89.347168" fuel_abs="88.274808" electricity_abs="0"/>
    </tripinfo>
    <tripinfo id="S_L.1" depart="44.60" departLane="a1i_0" departPos="4.90" departSpeed="0.00" departDelay="1.90" arrival="89.40" arrivalLane="a4o_2" arrivalPos="176.18" arrivalSpeed="19.54" duration="44.80" routeLength="390.41" waitingTime="7.40" waitingCount="1" stopTime="0.00" timeLoss="21.40" rerouteNo="0" devices="tripinfo_S_L.1 emissions_S_L.1" vType="car" speedFactor="1.03" vaporized="">
        <emissions CO_abs="2968.298732" CO2_abs="162168.660895" HC_abs="17.391599" PMx_abs="3.335196" NOx_abs="69.339479" fuel_abs="69.709056" electricity_abs="0"/>
    </tripinfo>
    <tripinfo id="E_S.9" depart="41.80" departLane="a2i_0" departPos="4.90" departSpeed="0.00" departDelay="2.70" arrival="89.70" arrivalLane="a4o_1" arrivalPos="176.18" arrivalSpeed="18.40" duration="47.90" routeLength="395.21" waitingTime="11.10" waitingCount="1" stopTime="0.00" timeLoss="23.72" rerouteNo="0" devices="tripinfo_E_S.9 emissions_E_S.9" vType="car" speedFactor="0.97" vaporized="">
        <emissions CO_abs="3582.006966" CO2_abs="172277.918275" HC_abs="20.428288" PMx_abs="3.614296" NOx_abs="74.132436" fuel_abs="74.054830" electricity_abs="0"/>
    </tripinfo>
    <tripinfo id="E_S.11" depart="62.00" departLane="a2i_0" departPos="4.90" departSpeed="0.00" departDelay="0.00" arrival="90.80" arrivalLane="a4o_1" arrivalPos="176.18" arrivalSpeed="19.45" duration="28.80" routeLength="395.21" waitingTime="0.00" waitingCount="0" stopTime="0.00" timeLoss="5.80" rerouteNo="0" devices="tripinfo_E_S.11 emissions_E_S.11" vType="car" speedFactor="1.02" vaporized="">
        <emissions CO_abs="2215.438770" CO2_abs="143890.592909" HC_abs="13.515952" PMx_abs="2.900108" NOx_abs="60.728699" fuel_abs="61.851904" electricity_abs="0"/>
    </tripinfo>
    <tripinfo id="E_S.7" depart="30.90" departLane="a2i_0" departPos="4.90" departSpeed="0.00" departDelay="2.90" arrival="94.00" arrivalLane="a4o_2" arrivalPos="176.18" arrivalSpeed="19.98" duration="63.10" routeLength="395.21" waitingTime="26.20" waitingCount="2" stopTime="0.00" timeLoss="41.60" rerouteNo="0" devices="tripinfo_E_S.7 emissions_E_S.7" vType="car" speedFactor="1.13" vaporized="">
        <emissions CO_abs="6500.430557" CO2_abs="234239.149897" HC_abs="35.207786" PMx_abs="5.147412" NOx_abs="102.037626" fuel_abs="100.690354" electricity_abs="0"/>
    </tripinfo>
    <tripinfo id="E_S.8" depart="36.00" departLane="a2i_0" departPos="4.90" departSpeed="0.00" departDelay="0.50" arrival="94.20" arrivalLane="a4o_1" arrivalPos="176.18" arrivalSpeed="18.90" duration="58.20" routeLength="395.21" waitingTime="18.30" waitingCount="2" stopTime="0.00" timeLoss="34.54" rerouteNo="0" devices="tripinfo_E_S.8 emissions_E_S.8" vType="car" speedFactor="0.99" vaporized="">
        <emissions CO_abs="4202.181042" CO2_abs="170407.207210" HC_abs="23.170796" PMx_abs="3.577040" NOx_abs="73.107019" fuel_abs="73.251274" electricity_abs="0"/>
    </tripinfo>
    <tripinfo id="E_S.10" depart="52.90" departLane="a2i_0" departPos="4.90" departSpeed="0.00" departDelay="0.00" arrival="96.80" arrivalLane="a4o_2" arrivalPos="176.18" arrivalSpeed="16.09" duration="43.90" routeLength="395.21" waitingTime="0.90" waitingCount="1" stopTime="0.00" timeLoss="16.15" rerouteNo="0" devices="tripinfo_E_S.10 emissions_E_S.10" vType="car" speedFactor="0.85" vaporized="">
        <emissions CO_abs="2436.417061" CO2_abs="128778.138069" HC_abs="14.116591" PMx_abs="2.467795" NOx_abs="53.822073" fuel_abs="55.356311" electricity_abs="0"/>
    </tripinfo>
    <tripinfo id="E_S.12" depart="67.60" departLane="a2i_0" departPos="4.90" departSpeed="0.00" departDelay="0.00" arrival="97.00" arrivalLane="a4o_1" arrivalPos="176.18" arrivalSpeed="16.86" duration="29.40" routeLength="395.21" waitingTime="0.00" waitingCount="0" stopTime="0.00" timeLoss="3.37" rerouteNo="0" devices="tripinfo_E_S.12 emissions_E_S.12" vType="car" speedFactor="0.91" vaporized="">
        <emissions CO_abs="2520.334265" CO2_abs="160649.727364" HC_abs="15.341618" PMx_abs="3.295311" NOx_abs="68.346707" fuel_abs="69.055820" electricity_abs="0"/>
    </tripinfo>
    <tripinfo id="N_R.5" depart="70.30" departLane="a3i_0" departPos="4.90" departSpeed="0.00" departDelay="0.00" arrival="98.10" arrivalLane="a4o_0" arrivalPos="176.18" arrivalSpeed="19.66" duration="27.80" routeLength="365.95" waitingTime="0.00" waitingCount="0" stopTime="0.00" timeLoss="5.95" rerouteNo="0" devices="tripinfo_N_R.5 emissions_N_R.5" vType="car" speedFactor="1.04" vaporized="">
        <emissions CO_abs="2687.126210" CO2_abs="166899.758943" HC_abs="16.242361" PMx_abs="3.453106" NOx_abs="71.204488" fuel_abs="71.742427" electricity_abs="0"/>
    </tripinfo>
    <tripinfo id="E_S.13" depart="74.60" departLane="a2i_0" departPos="4.90" departSpeed="0.00" departDelay="0.70" arrival="102.70" arrivalLane="a4o_1" arrivalPos="176.18" arrivalSpeed="17.77" duration="28.10" routeLength="395.21" waitingTime="0.00" waitingCount="0" stopTime="0.00" timeLoss="3.06" rerouteNo="0" devices="tripinfo_E_S.13 emissions_E_S.13" vType="car" speedFactor="0.94" vaporized="">
        <emissions CO_abs="1412.566546" CO2_abs="101100.722580" HC_abs="8.779043" PMx_abs="1.852602" NOx_abs="41.061311" fuel_abs="43.458715" electricity_abs="0"/>
    </tripinfo>
    <tripinfo id="E_S.14" depart="76.90" departLane="a2i_0" departPos="4.90" departSpeed="0.00" departDelay="2.90" arrival="103.90" arrivalLane="a4o_1" arrivalPos="176.18" arrivalSpeed="20.00" duration="27.00" routeLength="395.21" waitingTime="0.00" waitingCount="0" stopTime="0.00" timeLoss="4.59" rerouteNo="0" devices="tripinfo_E_S.14 emissions_E_S.14" vType="car" speedFactor="1.06" vaporized="">
        <emissions CO_abs="1703.375780" CO2_abs="116319.818715" HC_abs="10.477885" PMx_abs="2.261903" NOx_abs="48.108832" fuel_abs="50.000594" electricity_abs="0"/>
    </tripinfo>
    <tripinfo id="W_S.1" depart="3.30" departLane="a4i_0" departPos="4.90" departSpeed="0.00" departDelay="1.10" arrival="105.80" arrivalLane="a2o_2" arrivalPos="181.00" arrivalSpeed="19.08" duration="102.50" routeLength="395.21" waitingTime="70.40" waitingCount="1" stopTime="0.00" timeLoss="79.20" rerouteNo="0" devices="tripinfo_W_S.1 emissions_W_S.1" vType="car" speedFactor="1.01" vaporized="">
        <emissions CO_abs="14062.434584" CO2_abs="329592.538310" HC_abs="71.810995" PMx_abs="7.566012" NOx_abs="145.972921" fuel_abs="141.682765" electricity_abs="0"/>
    </tripinfo>
    <tripinfo id="W_S.0" depart="0.00" departLane="a4i_0" departPos="4.90" departSpeed="0.00" departDelay="0.00" arrival="106.00" arrivalLane="a2o_1" arrivalPos="181.00" arrivalSpeed="19.54" duration="106.00" routeLength="395.21" waitingTime="74.30" waitingCount="1" stopTime="0.00" timeLoss="83.73" rerouteNo="0" devices="tripinfo_W_S.0 emissions_W_S.0" vType="car" speedFactor="1.06" vaporized="">
        <emissions CO_abs="14730.589105" CO2_abs="341318.457912" HC_abs="75.132785" PMx_abs="7.853761" NOx_abs="151.220642" fuel_abs="146.723538" electricity_abs="0"/>
    </tripinfo>
    <tripinfo id="W_S.3" depart="14.60" departLane="a4i_0" departPos="4.90" departSpeed="0.00" departDelay="0.00" arrival="106.90" arrivalLane="a2o_2" arrivalPos="181.00" arrivalSpeed="19.86" duration="92.30" routeLength="395.21" waitingTime="57.30" waitingCount="1" stopTime="0.00" timeLoss="69.82" rerouteNo="0" devices="tripinfo_W_S.3 emissions_W_S.3" vType="car" speedFactor="1.05" vaporized="">
        <emissions CO_abs="10922.391935" CO2_abs="283764.445165" HC_abs="56.454871" PMx_abs="6.419117" NOx_abs="124.934856" fuel_abs="121.981674" electricity_abs="0"/>
    </tripinfo>
    <tripinfo id="E_S.15" depart="80.00" departLane="a2i_0" departPos="4.90" departSpeed="0.00" departDelay="4.00" arrival="107.20" arrivalLane="a4o_1" arrivalPos="176.18" arrivalSpeed="18.60" duration="27.20" routeLength="395.21" waitingTime="0.00" waitingCount="0" stopTime="0.00" timeLoss="3.23" rerouteNo="0" devices="tripinfo_E_S.15 emissions_E_S.15" vType="car" speedFactor="0.98" vaporized="">
        <emissions CO_abs="1464.174181" CO2_abs="104385.366728" HC_abs="9.093710" PMx_abs="1.942705" NOx_abs="42.492297" fuel_abs="44.870606" electricity_abs="0"/>
    </tripinfo>
    <tripinfo id="W_S.5" depart="26.20" departLane="a4i_0" departPos="4.90" departSpeed="0.00" departDelay="1.10" arrival="108.10" arrivalLane="a2o_2" arrivalPos="181.00" arrivalSpeed="18.51" duration="81.90" routeLength="395.21" waitingTime="46.00" waitingCount="1" stopTime="0.00" timeLoss="57.79" rerouteNo="0" devices="tripinfo_W_S.5 emissions_W_S.5" vType="car" speedFactor="0.98" vaporized="">
        <emissions CO_abs="8847.187515" CO2_abs="244013.647958" HC_abs="46.027611" PMx_abs="5.362640" NOx_abs="106.274647" fuel_abs="104.893803" electricity_abs="0"/>
    </tripinfo>
    <tripinfo id="W_S.2" depart="6.60" departLane="a4i_0" departPos="4.90" departSpeed="0.00" departDelay="0.00" arrival="108.90" arrivalLane="a2o_1" arrivalPos="181.00" arrivalSpeed="15.69" duration="102.30" routeLength="395.21" waitingTime="63.90" waitingCount="1" stopTime="0.00" timeLoss="74.00" rerouteNo="0" devices="tripinfo_W_S.2 emissions_W_S.2" vType="car" speedFactor="0.83" vaporized="">
        <emissions CO_abs="11420.447721" CO2_abs="267078.761235" HC_abs="58.269282" PMx_abs="5.955454" NOx_abs="117.326035" fuel_abs="114.810084" electricity_abs="0"/>
    </tripinfo>
    <tripinfo id="W_S.7" depart="32.50" departLane="a4i_0" departPos="4.90" departSpeed="0.00" departDelay="0.00" arrival="109.20" arrivalLane="a2o_2" arrivalPos="181.00" arrivalSpeed="19.93" duration="76.70" routeLength="395.21" waitingTime="41.20" waitingCount="1" stopTime="0.00" timeLoss="55.51" rerouteNo="0" devices="tripinfo_W_S.7 emissions_W_S.7" vType="car" speedFactor="1.15" vaporized="">
        <emissions CO_abs="8398.878765" CO2_abs="248235.633495" HC_abs="44.148932" PMx_abs="5.483889" NOx_abs="108.307697" fuel_abs="106.708150" electricity_abs="0"/>
    </tripinfo>
    <tripinfo id="W_S.4" depart="23.90" departLane="a4i_0" departPos="4.90" departSpeed="0.00" departDelay="0.00" arrival="110.00" arrivalLane="a2o_1" arrivalPos="181.00" arrivalSpeed="18.17" duration="86.10" routeLength="395.21" waitingTime="48.70" waitingCount="1" stopTime="0.00" timeLoss="62.85" rerouteNo="0" devices="tripinfo_W_S.4 emissions_W_S.4" vType="car" speedFactor="1.01" vaporized="">
        <emissions CO_abs="9283.899933" CO2_abs="250564.375618" HC_abs="48.166719" PMx_abs="5.489187" NOx_abs="109.277696" fuel_abs="107.709927" electricity_abs="0"/>
    </tripinfo>
    <tripinfo id="W_S.8" depart="39.10" departLane="a4i_0" departPos="4.90" departSpeed="0.00" departDelay="0.00" arrival="110.20" arrivalLane="a2o_2" arrivalPos="181.00" arrivalSpeed="19.90" duration="71.10" routeLength="395.21" waitingTime="35.60" waitingCount="1" stopTime="0.00" timeLoss="50.23" rerouteNo="0" devices="tripinfo_W_S.8 emissions_W_S.8" vType="car" speedFactor="1.18" vaporized="">