<?xml version="1.0" encoding="UTF-8"?>

<!-- generated on 12/03/19 22:54:40 by Eclipse SUMO GUI Version 1.3.1
<configuration xmlns:xsi="http://www.w3.org/2001/XMLSchema-instance" xsi:noNamespaceSchemaLocation="http://sumo.dlr.de/xsd/sumoConfiguration.xsd">

    <input>
        <net-file value="../cfg11B/intersection.net.xml"/>
        <route-files value="../cfg11B/intersection.rou.xml"/>
        <additional-files value="../cfg11B/intersection.det.xml"/>
    </input>

    <output>
        <tripinfo-output value="../result/tripinfo11B.xml"/>
    </output>

    <time>
        <begin value="0"/>
        <end value="3800"/>
        <step-length value="0.1"/>
    </time>

    <processing>
        <collision.action value="none"/>
    </processing>

    <emissions>
        <device.emissions.probability value="1"/>
    </emissions>

    <traci_server>
        <remote-port value="60021"/>
    </traci_server>

    <gui_only>
        <tracker-interval value="0.1"/>
    </gui_only>

</configuration>
-->

<tripinfos xmlns:xsi="http://www.w3.org/2001/XMLSchema-instance" xsi:noNamespaceSchemaLocation="http://sumo.dlr.de/xsd/tripinfo_file.xsd">
    <tripinfo id="N_R.0" depart="8.60" departLane="a3i_0" departPos="4.90" departSpeed="0.00" departDelay="0.00" arrival="34.40" arrivalLane="a4o_0" arrivalPos="176.18" arrivalSpeed="19.41" duration="25.80" routeLength="365.95" waitingTime="0.00" waitingCount="0" stopTime="0.00" timeLoss="6.23" rerouteNo="0" devices="tripinfo_N_R.0 emissions_N_R.0" vType="car" speedFactor="1.03" vaporized="">
        <emissions CO_abs="2461.118724" CO2_abs="150527.808076" HC_abs="14.825109" PMx_abs="3.159788" NOx_abs="64.276129" fuel_abs="64.704875" electricity_abs="0"/>
    </tripinfo>
    <tripinfo id="W_L.0" depart="2.30" departLane="a4i_0" departPos="4.90" departSpeed="0.00" departDelay="1.10" arrival="37.60" arrivalLane="a3o_2" arrivalPos="178.50" arrivalSpeed="17.81" duration="35.30" routeLength="392.39" waitingTime="2.60" waitingCount="1" stopTime="0.00" timeLoss="12.77" rerouteNo="0" devices="tripinfo_W_L.0 emissions_W_L.0" vType="car" speedFactor="0.94" vaporized="">
        <emissions CO_abs="3221.856521" CO2_abs="168727.309048" HC_abs="18.667171" PMx_abs="3.473086" NOx_abs="71.873998" fuel_abs="72.528458" electricity_abs="0"/>
    </tripinfo>
    <tripinfo id="S_R.0" depart="16.10" departLane="a1i_0" departPos="4.90" departSpeed="0.00" departDelay="0.90" arrival="43.00" arrivalLane="a2o_0" arrivalPos="181.00" arrivalSpeed="18.46" duration="26.90" routeLength="371.93" waitingTime="0.00" waitingCount="0" stopTime="0.00" timeLoss="6.36" rerouteNo="0" devices="tripinfo_S_R.0 emissions_S_R.0" vType="car" speedFactor="0.98" vaporized="">
        <emissions CO_abs="2566.333450" CO2_abs="158824.762679" HC_abs="15.503337" PMx_abs="3.313618" NOx_abs="67.775359" fuel_abs="68.271345" electricity_abs="0"/>
    </tripinfo>
    <tripinfo id="E_L.0" depart="15.90" departLane="a2i_0" departPos="4.90" departSpeed="0.00" departDelay="4.10" arrival="44.10" arrivalLane="a1o_2" arrivalPos="174.27" arrivalSpeed="17.82" duration="28.20" routeLength="393.74" waitingTime="0.00" waitingCount="0" stopTime="0.00" timeLoss="6.01" rerouteNo="0" devices="tripinfo_E_L.0 emissions_E_L.0" vType="car" speedFactor="0.94" vaporized="">
        <emissions CO_abs="2228.801447" CO2_abs="141144.067818" HC_abs="13.497965" PMx_abs="2.858984" NOx_abs="59.545568" fuel_abs="60.671335" electricity_abs="0"/>
    </tripinfo>
    <tripinfo id="W_R.0" depart="16.90" departLane="a4i_0" departPos="4.90" departSpeed="0.00" departDelay="1.60" arrival="45.00" arrivalLane="a1o_0" arrivalPos="174.27" arrivalSpeed="16.88" duration="28.10" routeLength="355.03" waitingTime="0.00" waitingCount="0" stopTime="0.00" timeLoss="6.45" rerouteNo="0" devices="tripinfo_W_R.0 emissions_W_R.0" vType="car" speedFactor="0.89" vaporized="">
        <emissions CO_abs="2357.588816" CO2_abs="141419.716273" HC_abs="14.081444" PMx_abs="2.869418" NOx_abs="59.988133" fuel_abs="60.789891" electricity_abs="0"/>
    </tripinfo>
    <tripinfo id="N_R.1" depart="22.80" departLane="a3i_0" departPos="4.90" departSpeed="0.00" departDelay="0.00" arrival="49.60" arrivalLane="a4o_0" arrivalPos="176.18" arrivalSpeed="18.89" duration="26.80" routeLength="365.95" waitingTime="0.00" waitingCount="0" stopTime="0.00" timeLoss="6.80" rerouteNo="0" devices="tripinfo_N_R.1 emissions_N_R.1" vType="car" speedFactor="0.99" vaporized="">
        <emissions CO_abs="2608.583200" CO2_abs="157612.244554" HC_abs="15.660513" PMx_abs="3.308513" NOx_abs="67.477036" fuel_abs="67.750151" electricity_abs="0"/>
    </tripinfo>
    <tripinfo id="N_S.1" depart="25.80" departLane="a3i_0" departPos="4.90" departSpeed="0.00" departDelay="0.00" arrival="53.60" arrivalLane="a1o_2" arrivalPos="174.27" arrivalSpeed="19.47" duration="27.80" routeLength="393.21" waitingTime="0.00" waitingCount="0" stopTime="0.00" timeLoss="7.58" rerouteNo="0" devices="tripinfo_N_S.1 emissions_N_S.1" vType="car" speedFactor="1.03" vaporized="">
        <emissions CO_abs="2696.084270" CO2_abs="164991.612268" HC_abs="16.254713" PMx_abs="3.463867" NOx_abs="70.461554" fuel_abs="70.922188" electricity_abs="0"/>
    </tripinfo>
    <tripinfo id="N_S.2" depart="28.20" departLane="a3i_0" departPos="4.90" departSpeed="0.00" departDelay="1.80" arrival="55.50" arrivalLane="a1o_2" arrivalPos="174.27" arrivalSpeed="18.10" duration="27.30" routeLength="393.21" waitingTime="0.00" waitingCount="0" stopTime="0.00" timeLoss="5.79" rerouteNo="0" devices="tripinfo_N_S.2 emissions_N_S.2" vType="car" speedFactor="0.96" vaporized="">
        <emissions CO_abs="2089.947730" CO2_abs="136709.473268" HC_abs="12.780315" PMx_abs="2.755090" NOx_abs="57.455990" fuel_abs="58.765086" electricity_abs="0"/>
    </tripinfo>
    <tripinfo id="S_S.1" depart="6.90" departLane="a1i_0" departPos="4.90" departSpeed="0.00" departDelay="0.00" arrival="55.60" arrivalLane="a3o_1" arrivalPos="178.50" arrivalSpeed="19.96" duration="48.70" routeLength="396.73" waitingTime="18.10" waitingCount="1" stopTime="0.00" timeLoss="28.59" rerouteNo="0" devices="tripinfo_S_S.1 emissions_S_S.1" vType="car" speedFactor="1.09" vaporized="">
        <emissions CO_abs="5929.357337" CO2_abs="221157.145300" HC_abs="32.296762" PMx_abs="4.839556" NOx_abs="95.981155" fuel_abs="95.066782" electricity_abs="0"/>
    </tripinfo>
    <tripinfo id="N_S.0" depart="12.60" departLane="a3i_0" departPos="4.90" departSpeed="0.00" departDelay="0.00" arrival="56.10" arrivalLane="a1o_1" arrivalPos="174.27" arrivalSpeed="17.68" duration="43.50" routeLength="393.21" waitingTime="12.30" waitingCount="1" stopTime="0.00" timeLoss="21.53" rerouteNo="0" devices="tripinfo_N_S.0 emissions_N_S.0" vType="car" speedFactor="0.94" vaporized="">
        <emissions CO_abs="4554.757535" CO2_abs="181170.295934" HC_abs="25.033245" PMx_abs="3.852980" NOx_abs="77.971418" fuel_abs="77.877902" electricity_abs="0"/>
    </tripinfo>
    <tripinfo id="S_S.3" depart="11.50" departLane="a1i_0" departPos="4.90" departSpeed="0.00" departDelay="1.20" arrival="57.00" arrivalLane="a3o_2" arrivalPos="178.50" arrivalSpeed="18.80" duration="45.50" routeLength="396.73" waitingTime="11.10" waitingCount="1" stopTime="0.00" timeLoss="24.57" rerouteNo="0" devices="tripinfo_S_S.3 emissions_S_S.3" vType="car" speedFactor="0.99" vaporized="">
        <emissions CO_abs="3576.590579" CO2_abs="175057.027593" HC_abs="20.483704" PMx_abs="3.711486" NOx_abs="75.244195" fuel_abs="75.249371" electricity_abs="0"/>
    </tripinfo>
    <tripinfo id="S_S.0" depart="3.00" departLane="a1i_0" departPos="4.90" departSpeed="0.00" departDelay="0.00" arrival="57.90" arrivalLane="a3o_1" arrivalPos="178.50" arrivalSpeed="15.70" duration="54.90" routeLength="396.73" waitingTime="21.60" waitingCount="1" stopTime="0.00" timeLoss="29.95" rerouteNo="0" devices="tripinfo_S_S.0 emissions_S_S.0" vType="car" speedFactor="0.83" vaporized="">
        <emissions CO_abs="5767.324196" CO2_abs="190578.826144" HC_abs="30.715733" PMx_abs="4.007773" NOx_abs="81.850031" fuel_abs="81.923143" electricity_abs="0"/>
    </tripinfo>
    <tripinfo id="S_S.2" depart="9.20" departLane="a1i_0" departPos="4.90" departSpeed="0.00" departDelay="0.30" arrival="59.10" arrivalLane="a3o_1" arrivalPos="178.50" arrivalSpeed="18.65" duration="49.90" routeLength="396.73" waitingTime="13.40" waitingCount="1" stopTime="0.00" timeLoss="29.65" rerouteNo="0" devices="tripinfo_S_S.2 emissions_S_S.2" vType="car" speedFactor="1.05" vaporized="">
        <emissions CO_abs="3897.040720" CO2_abs="180211.889063" HC_abs="22.051455" PMx_abs="3.765850" NOx_abs="77.316050" fuel_abs="77.465467" electricity_abs="0"/>
    </tripinfo>
    <tripinfo id="S_R.1" depart="32.10" departLane="a1i_0" departPos="4.90" departSpeed="0.00" departDelay="1.10" arrival="59.10" arrivalLane="a2o_0" arrivalPos="181.00" arrivalSpeed="18.96" duration="27.00" routeLength="371.93" waitingTime="0.00" waitingCount="0" stopTime="0.00" timeLoss="7.02" rerouteNo="0" devices="tripinfo_S_R.1 emissions_S_R.1" vType="car" speedFactor="1.00" vaporized="">
        <emissions CO_abs="2756.351665" CO2_abs="168161.039771" HC_abs="16.598700" PMx_abs="3.542683" NOx_abs="72.073296" fuel_abs="72.284546" electricity_abs="0"/>
    </tripinfo>
    <tripinfo id="S_S.4" depart="13.80" departLane="a1i_0" departPos="4.90" departSpeed="0.00" departDelay="2.10" arrival="59.30" arrivalLane="a3o_2" arrivalPos="178.50" arrivalSpeed="16.61" duration="45.50" routeLength="396.73" waitingTime="8.90" waitingCount="1" stopTime="0.00" timeLoss="21.84" rerouteNo="0" devices="tripinfo_S_S.4 emissions_S_S.4" vType="car" speedFactor="0.88" vaporized="">
        <emissions CO_abs="2710.408970" CO2_abs="144025.135253" HC_abs="15.725191" PMx_abs="2.880063" NOx_abs="60.773367" fuel_abs="61.910175" electricity_abs="0"/>
    </tripinfo>
    <tripinfo id="N_S.3" depart="31.30" departLane="a3i_0" departPos="4.90" departSpeed="0.00" departDelay="3.10" arrival="59.30" arrivalLane="a1o_2" arrivalPos="174.27" arrivalSpeed="16.08" duration="28.00" routeLength="393.21" waitingTime="0.00" waitingCount="0" stopTime="0.00" timeLoss="3.79" rerouteNo="0" devices="tripinfo_N_S.3 emissions_N_S.3" vType="car" speedFactor="0.85" vaporized="">
        <emissions CO_abs="1896.756757" CO2_abs="127624.754541" HC_abs="11.640168" PMx_abs="2.504372" NOx_abs="53.233676" fuel_abs="54.860033" electricity_abs="0"/>
    </tripinfo>
    <tripinfo id="S_S.5" depart="18.40" departLane="a1i_0" departPos="4.90" departSpeed="0.00" departDelay="2.00" arrival="60.30" arrivalLane="a3o_1" arrivalPos="178.50" arrivalSpeed="16.57" duration="41.90" routeLength="396.73" waitingTime="1.20" waitingCount="1" stopTime="0.00" timeLoss="18.08" rerouteNo="0" devices="tripinfo_S_S.5 emissions_S_S.5" vType="car" speedFactor="0.87" vaporized="">
        <emissions CO_abs="2761.044299" CO2_abs="148922.854526" HC_abs="16.100863" PMx_abs="2.960782" NOx_abs="62.908477" fuel_abs="64.015471" electricity_abs="0"/>
    </tripinfo>
    <tripinfo id="S_S.6" depart="23.60" departLane="a1i_0" departPos="4.90" departSpeed="0.00" departDelay="0.00" arrival="60.40" arrivalLane="a3o_2" arrivalPos="178.50" arrivalSpeed="19.12" duration="36.80" routeLength="396.73" waitingTime="0.00" waitingCount="0" stopTime="0.00" timeLoss="16.27" rerouteNo="0" devices="tripinfo_S_S.6 emissions_S_S.6" vType="car" speedFactor="1.02" vaporized="">
        <emissions CO_abs="2981.980813" CO2_abs="166771.585144" HC_abs="17.554962" PMx_abs="3.417381" NOx_abs="71.041610" fuel_abs="71.687623" electricity_abs="0"/>
    </tripinfo>
    <tripinfo id="S_S.7" depart="27.50" departLane="a1i_0" departPos="4.90" departSpeed="0.00" departDelay="0.40" arrival="61.40" arrivalLane="a3o_1" arrivalPos="178.50" arrivalSpeed="19.07" duration="33.90" routeLength="396.73" waitingTime="0.00" waitingCount="0" stopTime="0.00" timeLoss="13.62" rerouteNo="0" devices="tripinfo_S_S.7 emissions_S_S.7" vType="car" speedFactor="1.04" vaporized="">
        <emissions CO_abs="2793.640458" CO2_abs="164913.157102" HC_abs="16.659946" PMx_abs="3.353819" NOx_abs="70.153234" fuel_abs="70.888669" electricity_abs="0"/>
    </tripinfo>
    <tripinfo id="N_S.4" depart="33.60" departLane="a3i_0" departPos="4.90" departSpeed="0.00" departDelay="5.00" arrival="61.50" arrivalLane="a1o_2" arrivalPos="174.27" arrivalSpeed="16.23" duration="27.90" routeLength="393.21" waitingTime="0.00" waitingCount="0" stopTime="0.00" timeLoss="3.82" rerouteNo="0" devices="tripinfo_N_S.4 emissions_N_S.4" vType="car" speedFactor="0.85" vaporized="">
        <emissions CO_abs="1447.802806" CO2_abs="103453.823641" HC_abs="8.998331" PMx_abs="1.903020" NOx_abs="42.098132" fuel_abs="44.470197" electricity_abs="0"/>
    </tripinfo>
    <tripinfo id="S_S.8" depart="29.80" departLane="a1i_0" departPos="4.90" departSpeed="0.00" departDelay="0.50" arrival="61.50" arrivalLane="a3o_2" arrivalPos="178.50" arrivalSpeed="19.31" duration="31.70" routeLength="396.73" waitingTime="0.00" waitingCount="0" stopTime="0.00" timeLoss="11.09" rerouteNo="0" devices="tripinfo_S_S.8 emissions_S_S.8" vType="car" speedFactor="1.02" vaporized="">
        <emissions CO_abs="2565.663191" CO2_abs="158374.258527" HC_abs="15.459713" PMx_abs="3.195930" NOx_abs="67.030110" fuel_abs="68.077849" electricity_abs="0"/>
    </tripinfo>
    <tripinfo id="N_S.5" depart="35.90" departLane="a3i_0" departPos="4.90" departSpeed="0.00" departDelay="7.20" arrival="62.40" arrivalLane="a1o_1" arrivalPos="174.27" arrivalSpeed="19.00" duration="26.50" routeLength="393.21" waitingTime="0.00" waitingCount="0" stopTime="0.00" timeLoss="6.75" rerouteNo="0" devices="tripinfo_N_S.5 emissions_N_S.5" vType="car" speedFactor="1.17" vaporized="">
        <emissions CO_abs="3397.301715" CO2_abs="205948.366604" HC_abs="20.471167" PMx_abs="4.506350" NOx_abs="89.501773" fuel_abs="88.527295" electricity_abs="0"/>
    </tripinfo>
    <tripinfo id="S_S.9" depart="34.40" departLane="a1i_0" departPos="4.90" departSpeed="0.00" departDelay="2.60" arrival="62.60" arrivalLane="a3o_2" arrivalPos="178.50" arrivalSpeed="18.82" duration="28.20" routeLength="396.73" waitingTime="0.00" waitingCount="0" stopTime="0.00" timeLoss="7.31" rerouteNo="0" devices="tripinfo_S_S.9 emissions_S_S.9" vType="car" speedFactor="1.00" vaporized="">
        <emissions CO_abs="2002.604269" CO2_abs="135122.168370" HC_abs="12.337768" PMx_abs="2.663925" NOx_abs="56.404213" fuel_abs="58.082814" electricity_abs="0"/>
    </tripinfo>
    <tripinfo id="E_R.0" depart="38.50" departLane="a2i_0" departPos="4.90" departSpeed="0.00" departDelay="4.80" arrival="64.90" arrivalLane="a3o_0" arrivalPos="178.50" arrivalSpeed="19.93" duration="26.40" routeLength="363.97" waitingTime="0.00" waitingCount="0" stopTime="0.00" timeLoss="7.36" rerouteNo="0" devices="tripinfo_E_R.0 emissions_E_R.0" vType="car" speedFactor="1.14" vaporized="">
        <emissions CO_abs="2877.764707" CO2_abs="172071.992648" HC_abs="17.254993" PMx_abs="3.678607" NOx_abs="74.146554" fuel_abs="73.965643" electricity_abs="0"/>
    </tripinfo>
    <tripinfo id="N_S.6" depart="40.30" departLane="a3i_0" departPos="4.90" departSpeed="0.00" departDelay="0.00" arrival="66.90" arrivalLane="a1o_1" arrivalPos="174.27" arrivalSpeed="17.18" duration="26.60" routeLength="393.21" waitingTime="0.00" waitingCount="0" stopTime="0.00" timeLoss="3.95" rerouteNo="0" devices="tripinfo_N_S.6 emissions_N_S.6" vType="car" speedFactor="0.91" vaporized="">
        <emissions CO_abs="1515.521319" CO2_abs="107557.692930" HC_abs="9.372199" PMx_abs="2.025250" NOx_abs="43.921878" fuel_abs="46.234213" electricity_abs="0"/>
    </tripinfo>
    <tripinfo id="S_S.10" depart="41.40" departLane="a1i_0" departPos="4.90" departSpeed="0.00" departDelay="0.00" arrival="68.10" arrivalLane="a3o_1" arrivalPos="178.50" arrivalSpeed="17.30" duration="26.70" routeLength="396.73" waitingTime="0.00" waitingCount="0" stopTime="0.00" timeLoss="3.94" rerouteNo="0" devices="tripinfo_S_S.10 emissions_S_S.10" vType="car" speedFactor="0.91" vaporized="">
        <emissions CO_abs="1600.835725" CO2_abs="108503.144004" HC_abs="9.851924" PMx_abs="2.111866" NOx_abs="44.905693" fuel_abs="46.640572" electricity_abs="0"/>
    </tripinfo>
    <tripinfo id="S_S.11" depart="45.70" departLane="a1i_0" departPos="4.90" departSpeed="0.00" departDelay="0.90" arrival="70.60" arrivalLane="a3o_1" arrivalPos="178.50" arrivalSpeed="19.38" duration="24.90" routeLength="396.73" waitingTime="0.00" waitingCount="0" stopTime="0.00" timeLoss="4.39" rerouteNo="0" devices="tripinfo_S_S.11 emissions_S_S.11" vType="car" speedFactor="1.02" vaporized="">
        <emissions CO_abs="1797.169481" CO2_abs="120639.612981" HC_abs="11.046428" PMx_abs="2.418246" NOx_abs="50.139714" fuel_abs="51.857421" electricity_abs="0"/>
    </tripinfo>
    <tripinfo id="N_R.2" depart="47.20" departLane="a3i_0" departPos="4.90" departSpeed="0.00" departDelay="0.00" arrival="73.00" arrivalLane="a4o_0" arrivalPos="176.18" arrivalSpeed="19.92" duration="25.80" routeLength="365.95" waitingTime="0.00" waitingCount="0" stopTime="0.00" timeLoss="6.45" rerouteNo="0" devices="tripinfo_N_R.2 emissions_N_R.2" vType="car" speedFactor="1.06" vaporized="">
        <emissions CO_abs="2545.921080" CO2_abs="155433.257430" HC_abs="15.338238" PMx_abs="3.268345" NOx_abs="66.387571" fuel_abs="66.813497" electricity_abs="0"/>
    </tripinfo>
    <tripinfo id="E_R.1" depart="47.60" departLane="a2i_0" departPos="4.90" departSpeed="0.00" departDelay="10.40" arrival="74.90" arrivalLane="a3o_0" arrivalPos="178.50" arrivalSpeed="18.71" duration="27.30" routeLength="363.97" waitingTime="0.00" waitingCount="0" stopTime="0.00" timeLoss="7.43" rerouteNo="0" devices="tripinfo_E_R.1 emissions_E_R.1" vType="car" speedFactor="0.99" vaporized="">
        <emissions CO_abs="2747.299067" CO2_abs="165411.411536" HC_abs="16.486761" PMx_abs="3.479691" NOx_abs="70.968360" fuel_abs="71.102637" electricity_abs="0"/>
    </tripinfo>
    <tripinfo id="W_S.0" depart="0.00" departLane="a4i_0" departPos="4.90" departSpeed="0.00" departDelay="0.00" arrival="75.30" arrivalLane="a2o_1" arrivalPos="181.00" arrivalSpeed="19.95" duration="75.30" routeLength="395.22" waitingTime="45.20" waitingCount="1" stopTime="0.00" timeLoss="55.26" rerouteNo="0" devices="tripinfo_W_S.0 emissions_W_S.0" vType="car" speedFactor="1.06" vaporized="">
        <emissions CO_abs="10275.983716" CO2_abs="285433.703889" HC_abs="53.582653" PMx_abs="6.469366" NOx_abs="125.515270" fuel_abs="122.698635" electricity_abs="0"/>
    </tripinfo>
    <tripinfo id="E_S.0" depart="2.00" departLane="a2i_0" departPos="4.90" departSpeed="0.00" departDelay="0.00" arrival="75.40" arrivalLane="a4o_1" arrivalPos="176.18" arrivalSpeed="19.10" duration="73.40" routeLength="395.22" waitingTime="42.90" waitingCount="1" stopTime="0.00" timeLoss="52.86" rerouteNo="0" devices="tripinfo_E_S.0 emissions_E_S.0" vType="car" speedFactor="1.01" vaporized="">
        <emissions CO_abs="9837.306111" CO2_abs="275316.163313" HC_abs="51.344712" PMx_abs="6.216871" NOx_abs="120.993296" fuel_abs="118.349399" electricity_abs="0"/>
    </tripinfo>
    <tripinfo id="E_S.1" depart="4.30" departLane="a2i_0" departPos="4.90" departSpeed="0.00" departDelay="2.00" arrival="75.40" arrivalLane="a4o_2" arrivalPos="176.18" arrivalSpeed="19.50" duration="71.10" routeLength="395.22" waitingTime="40.30" waitingCount="1" stopTime="0.00" timeLoss="50.76" rerouteNo="0" devices="tripinfo_E_S.1 emissions_E_S.1" vType="car" speedFactor="1.03" vaporized="">
        <emissions CO_abs="9578.670368" CO2_abs="277751.411678" HC_abs="50.233522" PMx_abs="6.260710" NOx_abs="122.017923" fuel_abs="119.395951" electricity_abs="0"/>
    </tripinfo>
    <tripinfo id="W_S.3" depart="14.60" departLane="a4i_0" departPos="4.90" departSpeed="0.00" departDelay="0.00" arrival="75.70" arrivalLane="a2o_3" arrivalPos="181.00" arrivalSpeed="19.15" duration="61.10" routeLength="395.22" waitingTime="30.20" waitingCount="1" stopTime="0.00" timeLoss="40.53" rerouteNo="0" devices="tripinfo_W_S.3 emissions_W_S.3" vType="car" speedFactor="1.01" vaporized="">
        <emissions CO_abs="7879.404549" CO2_abs="247583.016128" HC_abs="41.780626" PMx_abs="5.517518" NOx_abs="108.351929" fuel_abs="106.427109" electricity_abs="0"/>
    </tripinfo>
    <tripinfo id="W_S.1" depart="2.90" departLane="a4i_0" departPos="4.90" departSpeed="0.00" departDelay="0.70" arrival="75.80" arrivalLane="a2o_2" arrivalPos="181.00" arrivalSpeed="19.42" duration="72.90" routeLength="395.22" waitingTime="42.00" waitingCount="1" stopTime="0.00" timeLoss="52.95" rerouteNo="0" devices="tripinfo_W_S.1 emissions_W_S.1" vType="car" speedFactor="1.08" vaporized="">
        <emissions CO_abs="9859.086833" CO2_abs="280070.231156" HC_abs="51.560408" PMx_abs="6.339717" NOx_abs="123.324248" fuel_abs="120.392851" electricity_abs="0"/>
    </tripinfo>
    <tripinfo id="E_S.2" depart="6.60" departLane="a2i_0" departPos="4.90" departSpeed="0.00" departDelay="1.90" arrival="76.70" arrivalLane="a4o_1" arrivalPos="176.18" arrivalSpeed="19.79" duration="70.10" routeLength="395.22" waitingTime="35.70" waitingCount="1" stopTime="0.00" timeLoss="49.95" rerouteNo="0" devices="tripinfo_E_S.2 emissions_E_S.2" vType="car" speedFactor="1.05" vaporized="">
        <emissions CO_abs="7985.963560" CO2_abs="261160.425879" HC_abs="42.615549" PMx_abs="5.838228" NOx_abs="114.473852" fuel_abs="112.263243" electricity_abs="0"/>
    </tripinfo>
    <tripinfo id="E_S.3" depart="8.90" departLane="a2i_0" departPos="4.90" departSpeed="0.00" departDelay="2.10" arrival="76.90" arrivalLane="a4o_3" arrivalPos="176.18" arrivalSpeed="16.18" duration="68.00" routeLength="395.22" waitingTime="35.00" waitingCount="1" stopTime="0.00" timeLoss="43.93" rerouteNo="0" devices="tripinfo_E_S.3 emissions_E_S.3" vType="car" speedFactor="0.86" vaporized="">
        <emissions CO_abs="8146.635842" CO2_abs="233006.272918" HC_abs="42.591870" PMx_abs="5.107284" NOx_abs="101.602889" fuel_abs="100.161821" electricity_abs="0"/>
    </tripinfo>
    <tripinfo id="W_S.2" depart="6.60" departLane="a4i_0" departPos="4.90" departSpeed="0.00" departDelay="0.00" arrival="77.30" arrivalLane="a2o_1" arrivalPos="181.00" arrivalSpeed="17.79" duration="70.70" routeLength="395.22" waitingTime="36.00" waitingCount="1" stopTime="0.00" timeLoss="48.69" rerouteNo="0" devices="tripinfo_W_S.2 emissions_W_S.2" vType="car" speedFactor="0.94" vaporized="">
        <emissions CO_abs="7381.448294" CO2_abs="223329.479906" HC_abs="38.904181" PMx_abs="4.949446" NOx_abs="97.693142" fuel_abs="96.001638" electricity_abs="0"/>
    </tripinfo>
    <tripinfo id="E_S.4" depart="11.20" departLane="a2i_0" departPos="4.90" departSpeed="0.00" departDelay="2.30" arrival="77.70" arrivalLane="a4o_2" arrivalPos="176.18" arrivalSpeed="18.31" duration="66.50" routeLength="395.22" waitingTime="31.00" waitingCount="1" stopTime="0.00" timeLoss="46.56" rerouteNo="0" devices="tripinfo_E_S.4 emissions_E_S.4" vType="car" speedFactor="1.12" vaporized="">
        <emissions CO_abs="7882.072047" CO2_abs="284073.020808" HC_abs="42.725574" PMx_abs="6.388214" NOx_abs="125.160717" fuel_abs="122.111737" electricity_abs="0"/>
    </tripinfo>
    <tripinfo id="W_S.6" depart="26.20" departLane="a4i_0" departPos="4.90" departSpeed="0.00" departDelay="1.10" arrival="77.70" arrivalLane="a2o_3" arrivalPos="181.00" arrivalSpeed="17.09" duration="51.50" routeLength="395.22" waitingTime="16.20" waitingCount="1" stopTime="0.00" timeLoss="28.56" rerouteNo="0" devices="tripinfo_W_S.6 emissions_W_S.6" vType="car" speedFactor="0.90" vaporized="">
        <emissions CO_abs="4043.397142" CO2_abs="167924.223728" HC_abs="22.413155" PMx_abs="3.530457" NOx_abs="72.100885" fuel_abs="72.183848" electricity_abs="0"/>
    </tripinfo>
    <tripinfo id="W_S.4" depart="19.20" departLane="a4i_0" departPos="4.90" departSpeed="0.00" departDelay="1.50" arrival="77.90" arrivalLane="a2o_2" arrivalPos="181.00" arrivalSpeed="17.56" duration="58.70" routeLength="395.22" waitingTime="23.40" waitingCount="1" stopTime="0.00" timeLoss="38.79" rerouteNo="0" devices="tripinfo_W_S.4 emissions_W_S.4" vType="car" speedFactor="1.13" vaporized="">
        <emissions CO_abs="5450.144905" CO2_abs="200001.927605" HC_abs="29.584062" PMx_abs="4.310913" NOx_abs="86.593273" fuel_abs="85.973135" electricity_abs="0"/>
    </tripinfo>
    <tripinfo id="E_S.6" depart="16.50" departLane="a2i_0" departPos="4.90" departSpeed="0.00" departDelay="3.80" arrival="78.00" arrivalLane="a4o_3" arrivalPos="176.18" arrivalSpeed="18.59" duration="61.50" routeLength="395.22" waitingTime="25.70" waitingCount="1" stopTime="0.00" timeLoss="41.70" rerouteNo="0" devices="tripinfo_E_S.6 emissions_E_S.6" vType="car" speedFactor="1.16" vaporized="">
        <emissions CO_abs="5933.425886" CO2_abs="214592.802078" HC_abs="32.109939" PMx_abs="4.611641" NOx_abs="92.843428" fuel_abs="92.245280" electricity_abs="0"/>
    </tripinfo>
    <tripinfo id="W_S.5" depart="23.90" departLane="a4i_0" departPos="4.90" departSpeed="0.00" departDelay="0.00" arrival="78.60" arrivalLane="a2o_1" arrivalPos="181.00" arrivalSpeed="18.46" duration="54.70" routeLength="395.22" waitingTime="19.40" waitingCount="1" stopTime="0.00" timeLoss="33.49" rerouteNo="0" devices="tripinfo_W_S.5 emissions_W_S.5" vType="car" speedFactor="0.97" vaporized="">
        <emissions CO_abs="5220.849467" CO2_abs="207081.349587" HC_abs="28.752069" PMx_abs="4.557773" NOx_abs="90.556116" fuel_abs="89.015774" electricity_abs="0"/>
    </tripinfo>
    <tripinfo id="E_S.5" depart="13.50" departLane="a2i_0" departPos="4.90" departSpeed="0.00" departDelay="2.50" arrival="78.70" arrivalLane="a4o_1" arrivalPos="176.18" arrivalSpeed="17.57" duration="65.20" routeLength="395.22" waitingTime="29.30" waitingCount="1" stopTime="0.00" timeLoss="42.91" rerouteNo="0" devices="tripinfo_E_S.5 emissions_E_S.5" vType="car" speedFactor="0.93" vaporized="">
        <emissions CO_abs="7230.544681" CO2_abs="257528.049802" HC_abs="39.099921" PMx_abs="5.726283" NOx_abs="112.992875" fuel_abs="110.701282" electricity_abs="0"/>
    </tripinfo>
    <tripinfo id="E_S.7" depart="18.80" departLane="a2i_0" departPos="4.90" departSpeed="0.00" departDelay="4.90" arrival="78.70" arrivalLane="a4o_2" arrivalPos="176.18" arrivalSpeed="19.34" duration="59.90" routeLength="395.22" waitingTime="24.20" waitingCount="1" stopTime="0.00" timeLoss="39.49" rerouteNo="0" devices="tripinfo_E_S.7 emissions_E_S.7" vType="car" speedFactor="1.02" vaporized="">
        <emissions CO_abs="6611.839793" CO2_abs="258382.165970" HC_abs="36.317199" PMx_abs="5.724318" NOx_abs="113.174414" fuel_abs="111.067921" electricity_abs="0"/>
    </tripinfo>
    <tripinfo id="W_S.9" depart="34.40" departLane="a4i_0" departPos="4.90" departSpeed="0.00" departDelay="1.90" arrival="78.90" arrivalLane="a2o_3" arrivalPos="181.00" arrivalSpeed="16.99" duration="44.50" routeLength="395.22" waitingTime="8.80" waitingCount="1" stopTime="0.00" timeLoss="21.50" rerouteNo="0" devices="tripinfo_W_S.9 emissions_W_S.9" vType="car" speedFactor="0.90" vaporized="">
        <emissions CO_abs="2797.561164" CO2_abs="147135.138968" HC_abs="16.208743" PMx_abs="2.989711" NOx_abs="62.441279" fuel_abs="63.246979" electricity_abs="0"/>
    </tripinfo>
    <tripinfo id="W_S.7" depart="28.50" departLane="a4i_0" departPos="4.90" departSpeed="0.00" departDelay="1.60" arrival="79.10" arrivalLane="a2o_2" arrivalPos="181.00" arrivalSpeed="17.48" duration="50.60" routeLength="395.22" waitingTime="14.70" waitingCount="1" stopTime="0.00" timeLoss="30.35" rerouteNo="0" devices="tripinfo_W_S.7 emissions_W_S.7" vType="car" speedFactor="1.04" vaporized="">
        <emissions CO_abs="4078.121445" CO2_abs="181590.856575" HC_abs="22.893629" PMx_abs="3.804432" NOx_abs="77.854331" fuel_abs="78.058351" electricity_abs="0"/>
    </tripinfo>
    <tripinfo id="E_S.9" depart="23.50" departLane="a2i_0" departPos="4.90" departSpeed="0.00" departDelay="6.80" arrival="79.20" arrivalLane="a4o_3" arrivalPos="176.18" arrivalSpeed="17.32" duration="55.70" routeLength="395.22" waitingTime="19.50" waitingCount="1" stopTime="0.00" timeLoss="33.19" rerouteNo="0" devices="tripinfo_E_S.9 emissions_E_S.9" vType="car" speedFactor="0.92" vaporized="">
        <emissions CO_abs="4637.858738" CO2_abs="183884.683007" HC_abs="25.473386" PMx_abs="3.839260" NOx_abs="78.767541" fuel_abs="79.044824" electricity_abs="0"/>
    </tripinfo>
    <tripinfo id="W_S.8" depart="30.80" departLane="a4i_0" departPos="4.90" departSpeed="0.00" departDelay="3.60" arrival="79.80" arrivalLane="a2o_1" arrivalPos="181.00" arrivalSpeed="18.83" duration="49.00" routeLength="395.22" waitingTime="13.20" waitingCount="1" stopTime="0.00" timeLoss="29.05" rerouteNo="0" devices="tripinfo_W_S.8 emissions_W_S.8" vType="car" speedFactor="1.09" vaporized="">
        <emissions CO_abs="4097.551936" CO2_abs="189254.978748" HC_abs="23.187408" PMx_abs="4.026973" NOx_abs="81.669710" fuel_abs="81.352601" electricity_abs="0"/>
    </tripinfo>
    <tripinfo id="E_S.10" depart="25.80" departLane="a2i_0" departPos="4.90" departSpeed="0.00" departDelay="7.60" arrival="79.90" arrivalLane="a4o_2" arrivalPos="176.18" arrivalSpeed="18.90" duration="54.10" routeLength="395.22" waitingTime="17.90" waitingCount="1" stopTime="0.00" timeLoss="34.33" rerouteNo="0" devices="tripinfo_E_S.10 emissions_E_S.10" vType="car" speedFactor="1.18" vaporized="">
        <emissions CO_abs="5312.725392" CO2_abs="227454.871497" HC_abs="29.647626" PMx_abs="4.932638" NOx_abs="98.874223" fuel_abs="97.773276" electricity_abs="0"/>
    </tripinfo>
    <tripinfo id="W_S.12" depart="54.10" departLane="a4i_0" departPos="4.90" departSpeed="0.00" departDelay="0.00" arrival="80.10" arrivalLane="a2o_3" arrivalPos="181.00" arrivalSpeed="19.31" duration="26.00" routeLength="395.22" waitingTime="0.00" waitingCount="0" stopTime="0.00" timeLoss="5.58" rerouteNo="0" devices="tripinfo_W_S.12 emissions_W_S.12" vType="car" speedFactor="1.02" vaporized="">