<?xml version="1.0" encoding="UTF-8"?>

<!-- generated on 11/26/19 08:43:24 by Eclipse SUMO GUI Version 1.3.1
<configuration xmlns:xsi="http://www.w3.org/2001/XMLSchema-instance" xsi:noNamespaceSchemaLocation="http://sumo.dlr.de/xsd/sumoConfiguration.xsd">

    <input>
        <net-file value="../cfg4/intersection.net.xml"/>
        <route-files value="../cfg4/intersection.rou.xml"/>
        <additional-files value="../cfg4/intersection.det.xml"/>
    </input>

    <output>
        <tripinfo-output value="../result/tripinfo4.xml"/>
    </output>

    <time>
        <begin value="0"/>
        <end value="3800"/>
        <step-length value="0.1"/>
    </time>

    <processing>
        <collision.action value="none"/>
    </processing>

    <emissions>
        <device.emissions.probability value="1"/>
    </emissions>

    <traci_server>
        <remote-port value="51055"/>
    </traci_server>

    <gui_only>
        <tracker-interval value="0.1"/>
    </gui_only>

</configuration>
-->

<tripinfos xmlns:xsi="http://www.w3.org/2001/XMLSchema-instance" xsi:noNamespaceSchemaLocation="http://sumo.dlr.de/xsd/tripinfo_file.xsd">
    <tripinfo id="E_R.0" depart="1.70" departLane="a2i_0" departPos="4.90" departSpeed="0.00" departDelay="0.00" arrival="29.10" arrivalLane="a3o_0" arrivalPos="177.25" arrivalSpeed="19.11" duration="27.40" routeLength="360.00" waitingTime="0.00" waitingCount="0" stopTime="0.00" timeLoss="5.37" rerouteNo="0" devices="tripinfo_E_R.0 emissions_E_R.0" vType="car" speedFactor="1.01" vaporized="">
        <emissions CO_abs="1990.448001" CO2_abs="127845.545120" HC_abs="12.082713" PMx_abs="2.509454" NOx_abs="53.404563" fuel_abs="54.955012" electricity_abs="0"/>
    </tripinfo>
    <tripinfo id="W_R.0" depart="5.20" departLane="a4i_0" departPos="4.90" departSpeed="0.00" departDelay="2.70" arrival="31.90" arrivalLane="a1o_0" arrivalPos="173.33" arrivalSpeed="19.81" duration="26.70" routeLength="350.22" waitingTime="0.00" waitingCount="0" stopTime="0.00" timeLoss="5.85" rerouteNo="0" devices="tripinfo_W_R.0 emissions_W_R.0" vType="car" speedFactor="1.05" vaporized="">
        <emissions CO_abs="2171.193935" CO2_abs="136583.321521" HC_abs="13.131565" PMx_abs="2.739250" NOx_abs="57.422661" fuel_abs="58.710938" electricity_abs="0"/>
    </tripinfo>
    <tripinfo id="N_R.0" depart="7.50" departLane="a3i_0" departPos="4.90" departSpeed="0.00" departDelay="0.60" arrival="34.80" arrivalLane="a4o_0" arrivalPos="172.31" arrivalSpeed="18.72" duration="27.30" routeLength="362.55" waitingTime="0.00" waitingCount="0" stopTime="0.00" timeLoss="4.52" rerouteNo="0" devices="tripinfo_N_R.0 emissions_N_R.0" vType="car" speedFactor="0.99" vaporized="">
        <emissions CO_abs="1885.970369" CO2_abs="122252.643271" HC_abs="11.487723" PMx_abs="2.389986" NOx_abs="51.017770" fuel_abs="52.550878" electricity_abs="0"/>
    </tripinfo>
    <tripinfo id="E_S.0" depart="4.00" departLane="a2i_0" departPos="4.90" departSpeed="0.00" departDelay="2.00" arrival="35.40" arrivalLane="a4o_1" arrivalPos="172.31" arrivalSpeed="19.97" duration="31.40" routeLength="395.10" waitingTime="0.30" waitingCount="1" stopTime="0.00" timeLoss="9.38" rerouteNo="0" devices="tripinfo_E_S.0 emissions_E_S.0" vType="car" speedFactor="1.08" vaporized="">
        <emissions CO_abs="2598.864530" CO2_abs="150724.587741" HC_abs="15.448706" PMx_abs="3.092097" NOx_abs="63.913058" fuel_abs="64.789686" electricity_abs="0"/>
    </tripinfo>
    <tripinfo id="E_S.2" depart="8.60" departLane="a2i_0" departPos="4.90" departSpeed="0.00" departDelay="3.90" arrival="37.10" arrivalLane="a4o_2" arrivalPos="172.31" arrivalSpeed="17.75" duration="28.50" routeLength="395.10" waitingTime="0.00" waitingCount="0" stopTime="0.00" timeLoss="3.35" rerouteNo="0" devices="tripinfo_E_S.2 emissions_E_S.2" vType="car" speedFactor="0.94" vaporized="">
        <emissions CO_abs="1560.958191" CO2_abs="108727.970365" HC_abs="9.647430" PMx_abs="2.039027" NOx_abs="44.566388" fuel_abs="46.737286" electricity_abs="0"/>
    </tripinfo>
    <tripinfo id="W_R.1" depart="9.80" departLane="a4i_0" departPos="4.90" departSpeed="0.00" departDelay="0.00" arrival="38.50" arrivalLane="a1o_0" arrivalPos="173.33" arrivalSpeed="17.69" duration="28.70" routeLength="350.22" waitingTime="0.00" waitingCount="0" stopTime="0.00" timeLoss="5.30" rerouteNo="0" devices="tripinfo_W_R.1 emissions_W_R.1" vType="car" speedFactor="0.94" vaporized="">
        <emissions CO_abs="1947.954374" CO2_abs="120085.960305" HC_abs="11.705657" PMx_abs="2.323834" NOx_abs="50.148656" fuel_abs="51.619617" electricity_abs="0"/>
    </tripinfo>
    <tripinfo id="E_S.1" depart="6.30" departLane="a2i_0" departPos="4.90" departSpeed="0.00" departDelay="4.00" arrival="38.70" arrivalLane="a4o_1" arrivalPos="172.31" arrivalSpeed="15.68" duration="32.40" routeLength="395.10" waitingTime="0.00" waitingCount="0" stopTime="0.00" timeLoss="4.08" rerouteNo="0" devices="tripinfo_E_S.1 emissions_E_S.1" vType="car" speedFactor="0.83" vaporized="">
        <emissions CO_abs="1533.201126" CO2_abs="103258.695371" HC_abs="9.401137" PMx_abs="1.841849" NOx_abs="42.049206" fuel_abs="44.386449" electricity_abs="0"/>
    </tripinfo>
    <tripinfo id="N_R.1" depart="9.80" departLane="a3i_0" departPos="4.90" departSpeed="0.00" departDelay="1.20" arrival="38.90" arrivalLane="a4o_0" arrivalPos="172.31" arrivalSpeed="16.87" duration="29.10" routeLength="362.55" waitingTime="0.00" waitingCount="0" stopTime="0.00" timeLoss="4.72" rerouteNo="0" devices="tripinfo_N_R.1 emissions_N_R.1" vType="car" speedFactor="0.93" vaporized="">
        <emissions CO_abs="2598.871699" CO2_abs="155885.760306" HC_abs="15.589237" PMx_abs="3.250487" NOx_abs="66.955687" fuel_abs="67.008033" electricity_abs="0"/>
    </tripinfo>
    <tripinfo id="E_S.3" depart="13.20" departLane="a2i_0" departPos="4.90" departSpeed="0.00" departDelay="6.40" arrival="40.00" arrivalLane="a4o_1" arrivalPos="172.31" arrivalSpeed="19.56" duration="26.80" routeLength="395.10" waitingTime="0.00" waitingCount="0" stopTime="0.00" timeLoss="4.29" rerouteNo="0" devices="tripinfo_E_S.3 emissions_E_S.3" vType="car" speedFactor="1.05" vaporized="">
        <emissions CO_abs="1788.856849" CO2_abs="115327.221443" HC_abs="10.887318" PMx_abs="2.324675" NOx_abs="48.488156" fuel_abs="49.573862" electricity_abs="0"/>
    </tripinfo>
    <tripinfo id="S_R.0" depart="16.10" departLane="a1i_0" departPos="4.90" departSpeed="0.00" departDelay="0.90" arrival="41.20" arrivalLane="a2o_0" arrivalPos="177.25" arrivalSpeed="19.91" duration="25.10" routeLength="368.61" waitingTime="0.00" waitingCount="0" stopTime="0.00" timeLoss="4.45" rerouteNo="0" devices="tripinfo_S_R.0 emissions_S_R.0" vType="car" speedFactor="1.13" vaporized="">
        <emissions CO_abs="2333.467410" CO2_abs="147216.350201" HC_abs="14.160636" PMx_abs="3.069405" NOx_abs="62.608731" fuel_abs="63.281414" electricity_abs="0"/>
    </tripinfo>
    <tripinfo id="E_R.1" depart="10.90" departLane="a2i_0" departPos="4.90" departSpeed="0.00" departDelay="4.80" arrival="41.50" arrivalLane="a3o_0" arrivalPos="177.25" arrivalSpeed="16.25" duration="30.60" routeLength="360.00" waitingTime="0.00" waitingCount="0" stopTime="0.00" timeLoss="4.56" rerouteNo="0" devices="tripinfo_E_R.1 emissions_E_R.1" vType="car" speedFactor="0.86" vaporized="">
        <emissions CO_abs="1774.627475" CO2_abs="110133.726305" HC_abs="10.676200" PMx_abs="2.066012" NOx_abs="45.670056" fuel_abs="47.341674" electricity_abs="0"/>
    </tripinfo>
    <tripinfo id="W_R.2" depart="14.50" departLane="a4i_0" departPos="4.90" departSpeed="0.00" departDelay="0.00" arrival="43.40" arrivalLane="a1o_0" arrivalPos="173.33" arrivalSpeed="17.36" duration="28.90" routeLength="350.22" waitingTime="0.00" waitingCount="0" stopTime="0.00" timeLoss="5.09" rerouteNo="0" devices="tripinfo_W_R.2 emissions_W_R.2" vType="car" speedFactor="0.92" vaporized="">
        <emissions CO_abs="1900.847300" CO2_abs="116640.909775" HC_abs="11.423334" PMx_abs="2.252729" NOx_abs="48.743978" fuel_abs="50.138753" electricity_abs="0"/>
    </tripinfo>
    <tripinfo id="E_S.4" depart="15.50" departLane="a2i_0" departPos="4.90" departSpeed="0.00" departDelay="6.60" arrival="43.60" arrivalLane="a4o_1" arrivalPos="172.31" arrivalSpeed="17.88" duration="28.10" routeLength="395.10" waitingTime="0.00" waitingCount="0" stopTime="0.00" timeLoss="3.06" rerouteNo="0" devices="tripinfo_E_S.4 emissions_E_S.4" vType="car" speedFactor="0.94" vaporized="">
        <emissions CO_abs="1443.338003" CO2_abs="103538.055662" HC_abs="8.984335" PMx_abs="1.905315" NOx_abs="42.095170" fuel_abs="44.506404" electricity_abs="0"/>
    </tripinfo>
    <tripinfo id="E_S.5" depart="17.80" departLane="a2i_0" departPos="4.90" departSpeed="0.00" departDelay="6.80" arrival="44.70" arrivalLane="a4o_1" arrivalPos="172.31" arrivalSpeed="19.23" duration="26.90" routeLength="395.10" waitingTime="0.00" waitingCount="0" stopTime="0.00" timeLoss="3.80" rerouteNo="0" devices="tripinfo_E_S.5 emissions_E_S.5" vType="car" speedFactor="1.02" vaporized="">
        <emissions CO_abs="1619.391892" CO2_abs="113117.874116" HC_abs="10.037492" PMx_abs="2.167233" NOx_abs="46.524110" fuel_abs="48.624251" electricity_abs="0"/>
    </tripinfo>
    <tripinfo id="E_L.0" depart="20.10" departLane="a2i_0" departPos="4.90" departSpeed="0.00" departDelay="8.30" arrival="47.50" arrivalLane="a1o_4" arrivalPos="173.33" arrivalSpeed="18.49" duration="27.40" routeLength="390.59" waitingTime="0.00" waitingCount="0" stopTime="0.00" timeLoss="3.21" rerouteNo="0" devices="tripinfo_E_L.0 emissions_E_L.0" vType="car" speedFactor="0.98" vaporized="">
        <emissions CO_abs="1484.901361" CO2_abs="108016.438128" HC_abs="9.282956" PMx_abs="1.991259" NOx_abs="43.856785" fuel_abs="46.431447" electricity_abs="0"/>
    </tripinfo>
    <tripinfo id="W_R.3" depart="19.10" departLane="a4i_0" departPos="4.90" departSpeed="0.00" departDelay="3.80" arrival="47.70" arrivalLane="a1o_0" arrivalPos="173.33" arrivalSpeed="17.60" duration="28.60" routeLength="350.22" waitingTime="0.00" waitingCount="0" stopTime="0.00" timeLoss="5.13" rerouteNo="0" devices="tripinfo_W_R.3 emissions_W_R.3" vType="car" speedFactor="0.93" vaporized="">
        <emissions CO_abs="1904.744437" CO2_abs="115872.496970" HC_abs="11.419308" PMx_abs="2.266943" NOx_abs="48.608164" fuel_abs="49.808415" electricity_abs="0"/>
    </tripinfo>
    <tripinfo id="N_R.2" depart="22.80" departLane="a3i_0" departPos="4.90" departSpeed="0.00" departDelay="0.00" arrival="49.40" arrivalLane="a4o_0" arrivalPos="172.31" arrivalSpeed="19.48" duration="26.60" routeLength="362.55" waitingTime="0.00" waitingCount="0" stopTime="0.00" timeLoss="4.73" rerouteNo="0" devices="tripinfo_N_R.2 emissions_N_R.2" vType="car" speedFactor="1.03" vaporized="">
        <emissions CO_abs="1964.128801" CO2_abs="126346.706985" HC_abs="11.948344" PMx_abs="2.514051" NOx_abs="52.945635" fuel_abs="54.310682" electricity_abs="0"/>
    </tripinfo>
    <tripinfo id="E_S.8" depart="25.30" departLane="a2i_0" departPos="4.90" departSpeed="0.00" departDelay="9.10" arrival="50.00" arrivalLane="a4o_2" arrivalPos="172.31" arrivalSpeed="19.99" duration="24.70" routeLength="395.10" waitingTime="0.00" waitingCount="0" stopTime="0.00" timeLoss="3.78" rerouteNo="0" devices="tripinfo_E_S.8 emissions_E_S.8" vType="car" speedFactor="1.18" vaporized="">
        <emissions CO_abs="1619.899182" CO2_abs="113118.351760" HC_abs="10.049685" PMx_abs="2.211025" NOx_abs="46.437574" fuel_abs="48.624428" electricity_abs="0"/>
    </tripinfo>
    <tripinfo id="E_S.6" depart="20.70" departLane="a2i_0" departPos="4.90" departSpeed="0.00" departDelay="8.00" arrival="52.00" arrivalLane="a4o_1" arrivalPos="172.31" arrivalSpeed="15.66" duration="31.30" routeLength="395.10" waitingTime="0.00" waitingCount="0" stopTime="0.00" timeLoss="2.78" rerouteNo="0" devices="tripinfo_E_S.6 emissions_E_S.6" vType="car" speedFactor="0.83" vaporized="">
        <emissions CO_abs="1312.517822" CO2_abs="93503.380278" HC_abs="8.164198" PMx_abs="1.615137" NOx_abs="37.605222" fuel_abs="40.193090" electricity_abs="0"/>
    </tripinfo>
    <tripinfo id="E_S.7" depart="23.00" departLane="a2i_0" departPos="4.90" departSpeed="0.00" departDelay="9.10" arrival="53.20" arrivalLane="a4o_1" arrivalPos="172.31" arrivalSpeed="16.55" duration="30.20" routeLength="395.10" waitingTime="0.00" waitingCount="0" stopTime="0.00" timeLoss="3.21" rerouteNo="0" devices="tripinfo_E_S.7 emissions_E_S.7" vType="car" speedFactor="0.87" vaporized="">
        <emissions CO_abs="1402.417943" CO2_abs="98231.240944" HC_abs="8.696572" PMx_abs="1.782331" NOx_abs="40.055344" fuel_abs="42.225284" electricity_abs="0"/>
    </tripinfo>
    <tripinfo id="E_S.9" depart="27.60" departLane="a2i_0" departPos="4.90" departSpeed="0.00" departDelay="10.90" arrival="54.50" arrivalLane="a4o_1" arrivalPos="172.31" arrivalSpeed="19.04" duration="26.90" routeLength="395.10" waitingTime="0.00" waitingCount="0" stopTime="0.00" timeLoss="3.50" rerouteNo="0" devices="tripinfo_E_S.9 emissions_E_S.9" vType="car" speedFactor="1.01" vaporized="">
        <emissions CO_abs="1658.857047" CO2_abs="113693.652707" HC_abs="10.236229" PMx_abs="2.202030" NOx_abs="47.005706" fuel_abs="48.871734" electricity_abs="0"/>
    </tripinfo>
    <tripinfo id="E_S.11" depart="31.80" departLane="a2i_0" departPos="4.90" departSpeed="0.00" departDelay="11.50" arrival="56.60" arrivalLane="a4o_2" arrivalPos="172.31" arrivalSpeed="19.90" duration="24.80" routeLength="395.10" waitingTime="0.00" waitingCount="0" stopTime="0.00" timeLoss="3.92" rerouteNo="0" devices="tripinfo_E_S.11 emissions_E_S.11" vType="car" speedFactor="1.18" vaporized="">
        <emissions CO_abs="1658.097853" CO2_abs="112123.926783" HC_abs="10.227913" PMx_abs="2.229025" NOx_abs="46.455110" fuel_abs="48.196943" electricity_abs="0"/>
    </tripinfo>
    <tripinfo id="E_S.10" depart="29.80" departLane="a2i_0" departPos="4.90" departSpeed="0.00" departDelay="11.60" arrival="57.10" arrivalLane="a4o_1" arrivalPos="172.31" arrivalSpeed="18.40" duration="27.30" routeLength="395.10" waitingTime="0.00" waitingCount="0" stopTime="0.00" timeLoss="3.09" rerouteNo="0" devices="tripinfo_E_S.10 emissions_E_S.10" vType="car" speedFactor="0.97" vaporized="">
        <emissions CO_abs="1416.418318" CO2_abs="103497.469046" HC_abs="8.829558" PMx_abs="1.900179" NOx_abs="41.900496" fuel_abs="44.488951" electricity_abs="0"/>
    </tripinfo>
    <tripinfo id="S_R.1" depart="32.10" departLane="a1i_0" departPos="4.90" departSpeed="0.00" departDelay="1.10" arrival="58.50" arrivalLane="a2o_0" arrivalPos="177.25" arrivalSpeed="19.22" duration="26.40" routeLength="368.61" waitingTime="0.00" waitingCount="0" stopTime="0.00" timeLoss="4.10" rerouteNo="0" devices="tripinfo_S_R.1 emissions_S_R.1" vType="car" speedFactor="1.02" vaporized="">
        <emissions CO_abs="1794.821273" CO2_abs="118572.521570" HC_abs="10.980260" PMx_abs="2.322165" NOx_abs="49.356578" fuel_abs="50.968938" electricity_abs="0"/>
    </tripinfo>
    <tripinfo id="E_L.1" depart="33.90" departLane="a2i_0" departPos="4.90" departSpeed="0.00" departDelay="11.80" arrival="59.40" arrivalLane="a1o_4" arrivalPos="173.33" arrivalSpeed="19.90" duration="25.50" routeLength="390.59" waitingTime="0.00" waitingCount="0" stopTime="0.00" timeLoss="3.67" rerouteNo="0" devices="tripinfo_E_L.1 emissions_E_L.1" vType="car" speedFactor="1.10" vaporized="">
        <emissions CO_abs="1626.749212" CO2_abs="113125.288194" HC_abs="10.080011" PMx_abs="2.192483" NOx_abs="46.482838" fuel_abs="48.627428" electricity_abs="0"/>
    </tripinfo>
    <tripinfo id="W_R.4" depart="33.00" departLane="a4i_0" departPos="4.90" departSpeed="0.00" departDelay="5.80" arrival="60.10" arrivalLane="a1o_0" arrivalPos="173.33" arrivalSpeed="19.25" duration="27.10" routeLength="350.22" waitingTime="0.00" waitingCount="0" stopTime="0.00" timeLoss="5.61" rerouteNo="0" devices="tripinfo_W_R.4 emissions_W_R.4" vType="car" speedFactor="1.02" vaporized="">
        <emissions CO_abs="2121.673132" CO2_abs="130513.790400" HC_abs="12.767359" PMx_abs="2.615979" NOx_abs="55.037368" fuel_abs="56.101950" electricity_abs="0"/>
    </tripinfo>
    <tripinfo id="E_S.13" depart="36.50" departLane="a2i_0" departPos="4.90" departSpeed="0.00" departDelay="8.80" arrival="61.90" arrivalLane="a4o_2" arrivalPos="172.31" arrivalSpeed="19.91" duration="25.40" routeLength="395.10" waitingTime="0.00" waitingCount="0" stopTime="0.00" timeLoss="3.55" rerouteNo="0" devices="tripinfo_E_S.13 emissions_E_S.13" vType="car" speedFactor="1.10" vaporized="">
        <emissions CO_abs="1635.402023" CO2_abs="112300.264338" HC_abs="10.095975" PMx_abs="2.205128" NOx_abs="46.367537" fuel_abs="48.272756" electricity_abs="0"/>
    </tripinfo>
    <tripinfo id="E_S.12" depart="34.50" departLane="a2i_0" departPos="4.90" departSpeed="0.00" departDelay="12.20" arrival="63.60" arrivalLane="a4o_1" arrivalPos="172.31" arrivalSpeed="17.07" duration="29.10" routeLength="395.10" waitingTime="0.00" waitingCount="0" stopTime="0.00" timeLoss="2.92" rerouteNo="0" devices="tripinfo_E_S.12 emissions_E_S.12" vType="car" speedFactor="0.90" vaporized="">
        <emissions CO_abs="1371.497793" CO2_abs="98122.241610" HC_abs="8.549164" PMx_abs="1.773166" NOx_abs="39.804996" fuel_abs="42.178431" electricity_abs="0"/>
    </tripinfo>
    <tripinfo id="E_L.2" depart="38.40" departLane="a2i_0" departPos="4.90" departSpeed="0.00" departDelay="10.50" arrival="65.30" arrivalLane="a1o_4" arrivalPos="173.33" arrivalSpeed="19.00" duration="26.90" routeLength="390.59" waitingTime="0.00" waitingCount="0" stopTime="0.00" timeLoss="3.40" rerouteNo="0" devices="tripinfo_E_L.2 emissions_E_L.2" vType="car" speedFactor="1.00" vaporized="">
        <emissions CO_abs="1517.422503" CO2_abs="108291.413491" HC_abs="9.467940" PMx_abs="2.031970" NOx_abs="44.151706" fuel_abs="46.549626" electricity_abs="0"/>
    </tripinfo>
    <tripinfo id="E_S.14" depart="38.90" departLane="a2i_0" departPos="4.90" departSpeed="0.00" departDelay="10.90" arrival="65.80" arrivalLane="a4o_1" arrivalPos="172.31" arrivalSpeed="18.92" duration="26.90" routeLength="395.10" waitingTime="0.00" waitingCount="0" stopTime="0.00" timeLoss="3.22" rerouteNo="0" devices="tripinfo_E_S.14 emissions_E_S.14" vType="car" speedFactor="1.00" vaporized="">
        <emissions CO_abs="1519.338406" CO2_abs="108298.141102" HC_abs="9.482926" PMx_abs="2.046901" NOx_abs="44.264887" fuel_abs="46.552496" electricity_abs="0"/>
    </tripinfo>
    <tripinfo id="S_R.2" depart="39.20" departLane="a1i_0" departPos="4.90" departSpeed="0.00" departDelay="0.00" arrival="66.10" arrivalLane="a2o_0" arrivalPos="177.25" arrivalSpeed="18.57" duration="26.90" routeLength="368.61" waitingTime="0.00" waitingCount="0" stopTime="0.00" timeLoss="3.88" rerouteNo="0" devices="tripinfo_S_R.2 emissions_S_R.2" vType="car" speedFactor="0.98" vaporized="">
        <emissions CO_abs="1766.262210" CO2_abs="116794.209530" HC_abs="10.800413" PMx_abs="2.270778" NOx_abs="48.573718" fuel_abs="50.204539" electricity_abs="0"/>
    </tripinfo>
    <tripinfo id="N_R.3" depart="38.90" departLane="a3i_0" departPos="4.90" departSpeed="0.00" departDelay="7.30" arrival="66.30" arrivalLane="a4o_0" arrivalPos="172.31" arrivalSpeed="18.66" duration="27.40" routeLength="362.55" waitingTime="0.00" waitingCount="0" stopTime="0.00" timeLoss="4.51" rerouteNo="0" devices="tripinfo_N_R.3 emissions_N_R.3" vType="car" speedFactor="0.99" vaporized="">
        <emissions CO_abs="1900.016585" CO2_abs="121270.732307" HC_abs="11.525963" PMx_abs="2.386799" NOx_abs="50.753118" fuel_abs="52.128794" electricity_abs="0"/>
    </tripinfo>
    <tripinfo id="E_R.2" depart="40.90" departLane="a2i_0" departPos="4.90" departSpeed="0.00" departDelay="11.00" arrival="67.40" arrivalLane="a3o_0" arrivalPos="177.25" arrivalSpeed="19.97" duration="26.50" routeLength="360.00" waitingTime="0.00" waitingCount="0" stopTime="0.00" timeLoss="5.65" rerouteNo="0" devices="tripinfo_E_R.2 emissions_E_R.2" vType="car" speedFactor="1.08" vaporized="">
        <emissions CO_abs="2161.713226" CO2_abs="134619.209427" HC_abs="13.058057" PMx_abs="2.742674" NOx_abs="56.914284" fuel_abs="57.866607" electricity_abs="0"/>
    </tripinfo>
    <tripinfo id="N_R.4" depart="41.90" departLane="a3i_0" departPos="4.90" departSpeed="0.00" departDelay="3.90" arrival="69.90" arrivalLane="a4o_0" arrivalPos="172.31" arrivalSpeed="18.11" duration="28.00" routeLength="362.55" waitingTime="0.00" waitingCount="0" stopTime="0.00" timeLoss="4.36" rerouteNo="0" devices="tripinfo_N_R.4 emissions_N_R.4" vType="car" speedFactor="0.96" vaporized="">
        <emissions CO_abs="1807.183650" CO2_abs="119725.223053" HC_abs="11.054824" PMx_abs="2.282216" NOx_abs="49.573281" fuel_abs="51.464510" electricity_abs="0"/>
    </tripinfo>
    <tripinfo id="S_R.3" depart="43.70" departLane="a1i_0" departPos="4.90" departSpeed="0.00" departDelay="1.10" arrival="70.30" arrivalLane="a2o_0" arrivalPos="177.25" arrivalSpeed="18.90" duration="26.60" routeLength="368.61" waitingTime="0.00" waitingCount="0" stopTime="0.00" timeLoss="3.93" rerouteNo="0" devices="tripinfo_S_R.3 emissions_S_R.3" vType="car" speedFactor="1.00" vaporized="">
        <emissions CO_abs="1756.079960" CO2_abs="117607.958092" HC_abs="10.774573" PMx_abs="2.276112" NOx_abs="48.779819" fuel_abs="50.554337" electricity_abs="0"/>
    </tripinfo>
    <tripinfo id="E_R.3" depart="43.20" departLane="a2i_0" departPos="4.90" departSpeed="0.00" departDelay="9.70" arrival="72.70" arrivalLane="a3o_0" arrivalPos="177.25" arrivalSpeed="17.12" duration="29.50" routeLength="360.00" waitingTime="0.00" waitingCount="0" stopTime="0.00" timeLoss="4.90" rerouteNo="0" devices="tripinfo_E_R.3 emissions_E_R.3" vType="car" speedFactor="0.91" vaporized="">
        <emissions CO_abs="1794.734794" CO2_abs="114542.223943" HC_abs="10.857244" PMx_abs="2.158967" NOx_abs="47.414338" fuel_abs="49.236647" electricity_abs="0"/>
    </tripinfo>
    <tripinfo id="N_R.5" depart="47.20" departLane="a3i_0" departPos="4.90" departSpeed="0.00" departDelay="0.00" arrival="74.30" arrivalLane="a4o_0" arrivalPos="172.31" arrivalSpeed="19.01" duration="27.10" routeLength="362.55" waitingTime="0.00" waitingCount="0" stopTime="0.00" timeLoss="4.56" rerouteNo="0" devices="tripinfo_N_R.5 emissions_N_R.5" vType="car" speedFactor="1.00" vaporized="">
        <emissions CO_abs="1877.472272" CO2_abs="121380.188923" HC_abs="11.426214" PMx_abs="2.384857" NOx_abs="50.706772" fuel_abs="52.175837" electricity_abs="0"/>
    </tripinfo>
    <tripinfo id="E_R.4" depart="45.60" departLane="a2i_0" departPos="4.90" departSpeed="0.00" departDelay="11.90" arrival="75.30" arrivalLane="a3o_0" arrivalPos="177.25" arrivalSpeed="17.34" duration="29.70" routeLength="360.00" waitingTime="0.00" waitingCount="0" stopTime="0.00" timeLoss="5.28" rerouteNo="0" devices="tripinfo_E_R.4 emissions_E_R.4" vType="car" speedFactor="0.91" vaporized="">
        <emissions CO_abs="1811.892775" CO2_abs="113489.590368" HC_abs="10.927176" PMx_abs="2.178135" NOx_abs="47.272852" fuel_abs="48.784133" electricity_abs="0"/>
    </tripinfo>
    <tripinfo id="W_L.0" depart="2.30" departLane="a4i_0" departPos="4.90" departSpeed="0.00" departDelay="1.10" arrival="76.30" arrivalLane="a3o_4" arrivalPos="177.25" arrivalSpeed="17.73" duration="74.00" routeLength="388.33" waitingTime="41.50" waitingCount="1" stopTime="0.00" timeLoss="48.77" rerouteNo="0" devices="tripinfo_W_L.0 emissions_W_L.0" vType="car" speedFactor="0.94" vaporized="">
        <emissions CO_abs="9000.015186" CO2_abs="238454.101019" HC_abs="46.588096" PMx_abs="5.252585" NOx_abs="104.105021" fuel_abs="102.504196" electricity_abs="0"/>
    </tripinfo>
    <tripinfo id="W_L.1" depart="47.90" departLane="a4i_0" departPos="4.90" departSpeed="0.00" departDelay="0.00" arrival="77.40" arrivalLane="a3o_4" arrivalPos="177.25" arrivalSpeed="19.11" duration="29.50" routeLength="388.33" waitingTime="0.00" waitingCount="0" stopTime="0.00" timeLoss="5.99" rerouteNo="0" devices="tripinfo_W_L.1 emissions_W_L.1" vType="car" speedFactor="1.01" vaporized="">
        <emissions CO_abs="1968.164526" CO2_abs="127569.324161" HC_abs="11.998654" PMx_abs="2.495869" NOx_abs="53.311586" fuel_abs="54.836271" electricity_abs="0"/>
    </tripinfo>
    <tripinfo id="E_R.5" depart="54.90" departLane="a2i_0" departPos="4.90" departSpeed="0.00" departDelay="17.70" arrival="81.60" arrivalLane="a3o_0" arrivalPos="177.25" arrivalSpeed="19.94" duration="26.70" routeLength="360.00" waitingTime="0.00" waitingCount="0" stopTime="0.00" timeLoss="5.56" rerouteNo="0" devices="tripinfo_E_R.5 emissions_E_R.5" vType="car" speedFactor="1.06" vaporized="">
        <emissions CO_abs="2152.921791" CO2_abs="135749.804506" HC_abs="13.036021" PMx_abs="2.731938" NOx_abs="57.126825" fuel_abs="58.352630" electricity_abs="0"/>
    </tripinfo>
    <tripinfo id="W_R.5" depart="53.50" departLane="a4i_0" departPos="4.90" departSpeed="0.00" departDelay="0.00" arrival="82.70" arrivalLane="a1o_0" arrivalPos="173.33" arrivalSpeed="17.21" duration="29.20" routeLength="350.22" waitingTime="0.00" waitingCount="0" stopTime="0.00" timeLoss="5.07" rerouteNo="0" devices="tripinfo_W_R.5 emissions_W_R.5" vType="car" speedFactor="0.91" vaporized="">
        <emissions CO_abs="1879.120820" CO2_abs="114583.722714" HC_abs="11.267629" PMx_abs="2.209959" NOx_abs="47.896795" fuel_abs="49.254470" electricity_abs="0"/>
    </tripinfo>
    <tripinfo id="N_R.6" depart="54.10" departLane="a3i_0" departPos="4.90" departSpeed="0.00" departDelay="2.20" arrival="82.90" arrivalLane="a4o_0" arrivalPos="172.31" arrivalSpeed="17.45" duration="28.80" routeLength="362.55" waitingTime="0.00" waitingCount="0" stopTime="0.00" timeLoss="4.26" rerouteNo="0" devices="tripinfo_N_R.6 emissions_N_R.6" vType="car" speedFactor="0.92" vaporized="">
        <emissions CO_abs="1753.762755" CO2_abs="113699.671963" HC_abs="10.659775" PMx_abs="2.156743" NOx_abs="47.119289" fuel_abs="48.874431" electricity_abs="0"/>
    </tripinfo>
    <tripinfo id="S_R.4" depart="61.00" departLane="a1i_0" departPos="4.90" departSpeed="0.00" departDelay="0.00" arrival="90.50" arrivalLane="a2o_0" arrivalPos="177.25" arrivalSpeed="16.41" duration="29.50" routeLength="368.61" waitingTime="0.00" waitingCount="0" stopTime="0.00" timeLoss="3.38" rerouteNo="0" devices="tripinfo_S_R.4 emissions_S_R.4" vType="car" speedFactor="0.87" vaporized="">
        <emissions CO_abs="1528.899182" CO2_abs="102582.401828" HC_abs="9.357257" PMx_abs="1.870529" NOx_abs="42.009007" fuel_abs="44.095682" electricity_abs="0"/>
    </tripinfo>
    <tripinfo id="N_R.7" depart="63.00" departLane="a3i_0" departPos="4.90" departSpeed="0.00" departDelay="8.40" arrival="92.40" arrivalLane="a4o_0" arrivalPos="172.31" arrivalSpeed="16.97" duration="29.40" routeLength="362.55" waitingTime="0.00" waitingCount="0" stopTime="0.00" timeLoss="4.17" rerouteNo="0" devices="tripinfo_N_R.7 emissions_N_R.7" vType="car" speedFactor="0.89" vaporized="">
        <emissions CO_abs="1713.323358" CO2_abs="111048.956699" HC_abs="10.414602" PMx_abs="2.078395" NOx_abs="45.884302" fuel_abs="47.735047" electricity_abs="0"/>
    </tripinfo>
    <tripinfo id="N_R.8" depart="65.30" departLane="a3i_0" departPos="4.90" departSpeed="0.00" departDelay="9.70" arrival="93.60" arrivalLane="a4o_0" arrivalPos="172.31" arrivalSpeed="19.73" duration="28.30" routeLength="362.55" waitingTime="0.00" waitingCount="0" stopTime="0.00" timeLoss="7.00" rerouteNo="0" devices="tripinfo_N_R.8 emissions_N_R.8" vType="car" speedFactor="1.07" vaporized="">
        <emissions CO_abs="2080.440549" CO2_abs="128842.818075" HC_abs="12.548927" PMx_abs="2.591574" NOx_abs="54.493812" fuel_abs="55.383639" electricity_abs="0"/>
    </tripinfo>
    <tripinfo id="W_S.0" depart="0.00" departLane="a4i_0" departPos="4.90" departSpeed="0.00" departDelay="0.00" arrival="95.70" arrivalLane="a2o_1" arrivalPos="177.25" arrivalSpeed="19.92" duration="95.70" routeLength="395.10" waitingTime="64.60" waitingCount="1" stopTime="0.00" timeLoss="73.47" rerouteNo="0" devices="tripinfo_W_S.0 emissions_W_S.0" vType="car" speedFactor="1.06" vaporized="">
        <emissions CO_abs="13134.553925" CO2_abs="319154.935269" HC_abs="67.337181" PMx_abs="7.279933" NOx_abs="140.767219" fuel_abs="137.195612" electricity_abs="0"/>
    </tripinfo>
    <tripinfo id="W_S.3" depart="16.80" departLane="a4i_0" departPos="4.90" departSpeed="0.00" departDelay="2.20" arrival="96.50" arrivalLane="a2o_3" arrivalPos="177.25" arrivalSpeed="18.02" duration="79.70" routeLength="395.10" waitingTime="46.40" waitingCount="1" stopTime="0.00" timeLoss="54.99" rerouteNo="0" devices="tripinfo_W_S.3 emissions_W_S.3" vType="car" speedFactor="0.95" vaporized="">
        <emissions CO_abs="10032.291897" CO2_abs="261656.783163" HC_abs="51.850006" PMx_abs="5.840983" NOx_abs="114.797652" fuel_abs="112.478337" electricity_abs="0"/>
    </tripinfo>
    <tripinfo id="W_S.1" depart="2.90" departLane="a4i_0" departPos="4.90" departSpeed="0.00" departDelay="0.70" arrival="96.60" arrivalLane="a2o_2" arrivalPos="177.25" arrivalSpeed="18.30" duration="93.70" routeLength="395.10" waitingTime="61.30" waitingCount="1" stopTime="0.00" timeLoss="70.88" rerouteNo="0" devices="tripinfo_W_S.1 emissions_W_S.1" vType="car" speedFactor="1.03" vaporized="">
        <emissions CO_abs="12551.275585" CO2_abs="305395.454293" HC_abs="64.360651" PMx_abs="6.946235" NOx_abs="134.856713" fuel_abs="131.280791" electricity_abs="0"/>
    </tripinfo>
    <tripinfo id="W_S.2" depart="7.50" departLane="a4i_0" departPos="4.90" departSpeed="0.00" departDelay="0.90" arrival="97.40" arrivalLane="a2o_1" arrivalPos="177.25" arrivalSpeed="19.41" duration="89.90" routeLength="395.10" waitingTime="54.60" waitingCount="1" stopTime="0.00" timeLoss="67.04" rerouteNo="0" devices="tripinfo_W_S.2 emissions_W_S.2" vType="car" speedFactor="1.03" vaporized="">