<?xml version="1.0" encoding="UTF-8"?>

<!-- generated on 12/03/19 22:20:41 by Eclipse SUMO GUI Version 1.3.1
<configuration xmlns:xsi="http://www.w3.org/2001/XMLSchema-instance" xsi:noNamespaceSchemaLocation="http://sumo.dlr.de/xsd/sumoConfiguration.xsd">

    <input>
        <net-file value="../cfg1B/intersection.net.xml"/>
        <route-files value="../cfg1B/intersection.rou.xml"/>
        <additional-files value="../cfg1B/intersection.det.xml"/>
    </input>

    <output>
        <tripinfo-output value="../result/tripinfo8BB.xml"/>
    </output>

    <time>
        <begin value="0"/>
        <end value="3800"/>
        <step-length value="0.1"/>
    </time>

    <processing>
        <collision.action value="none"/>
    </processing>

    <emissions>
        <device.emissions.probability value="1"/>
    </emissions>

    <traci_server>
        <remote-port value="53214"/>
    </traci_server>

    <gui_only>
        <tracker-interval value="0.1"/>
    </gui_only>

</configuration>
-->

<tripinfos xmlns:xsi="http://www.w3.org/2001/XMLSchema-instance" xsi:noNamespaceSchemaLocation="http://sumo.dlr.de/xsd/tripinfo_file.xsd">
    <tripinfo id="S_S.0" depart="3.00" departLane="a1i_0" departPos="4.90" departSpeed="0.00" departDelay="0.00" arrival="28.20" arrivalLane="a3o_1" arrivalPos="178.50" arrivalSpeed="19.95" duration="25.20" routeLength="396.73" waitingTime="0.00" waitingCount="0" stopTime="0.00" timeLoss="5.07" rerouteNo="0" devices="tripinfo_S_S.0 emissions_S_S.0" vType="car" speedFactor="1.08" vaporized="">
        <emissions CO_abs="2165.031015" CO2_abs="144552.246173" HC_abs="13.310635" PMx_abs="2.951937" NOx_abs="60.537243" fuel_abs="62.136280" electricity_abs="0"/>
    </tripinfo>
    <tripinfo id="S_S.1" depart="6.90" departLane="a1i_0" departPos="4.90" departSpeed="0.00" departDelay="0.00" arrival="34.10" arrivalLane="a3o_1" arrivalPos="178.50" arrivalSpeed="16.80" duration="27.20" routeLength="396.73" waitingTime="0.00" waitingCount="0" stopTime="0.00" timeLoss="3.79" rerouteNo="0" devices="tripinfo_S_S.1 emissions_S_S.1" vType="car" speedFactor="0.89" vaporized="">
        <emissions CO_abs="1526.008719" CO2_abs="108229.427145" HC_abs="9.451465" PMx_abs="2.036724" NOx_abs="44.263151" fuel_abs="46.522959" electricity_abs="0"/>
    </tripinfo>
    <tripinfo id="N_R.0" depart="8.60" departLane="a3i_0" departPos="4.90" departSpeed="0.00" departDelay="0.00" arrival="35.60" arrivalLane="a4o_0" arrivalPos="176.18" arrivalSpeed="17.74" duration="27.00" routeLength="365.95" waitingTime="0.00" waitingCount="0" stopTime="0.00" timeLoss="5.78" rerouteNo="0" devices="tripinfo_N_R.0 emissions_N_R.0" vType="car" speedFactor="0.94" vaporized="">
        <emissions CO_abs="2220.668642" CO2_abs="138209.802313" HC_abs="13.381410" PMx_abs="2.807951" NOx_abs="58.429190" fuel_abs="59.410040" electricity_abs="0"/>
    </tripinfo>
    <tripinfo id="S_S.2" depart="9.20" departLane="a1i_0" departPos="4.90" departSpeed="0.00" departDelay="0.30" arrival="37.20" arrivalLane="a3o_1" arrivalPos="178.50" arrivalSpeed="16.22" duration="28.00" routeLength="396.73" waitingTime="0.00" waitingCount="0" stopTime="0.00" timeLoss="3.73" rerouteNo="0" devices="tripinfo_S_S.2 emissions_S_S.2" vType="car" speedFactor="0.86" vaporized="">
        <emissions CO_abs="1475.599496" CO2_abs="102826.537892" HC_abs="9.108161" PMx_abs="1.924564" NOx_abs="42.122926" fuel_abs="44.200527" electricity_abs="0"/>
    </tripinfo>
    <tripinfo id="S_R.0" depart="15.20" departLane="a1i_0" departPos="4.90" departSpeed="0.00" departDelay="0.00" arrival="40.80" arrivalLane="a2o_0" arrivalPos="181.00" arrivalSpeed="19.89" duration="25.60" routeLength="371.93" waitingTime="0.00" waitingCount="0" stopTime="0.00" timeLoss="6.29" rerouteNo="0" devices="tripinfo_S_R.0 emissions_S_R.0" vType="car" speedFactor="1.12" vaporized="">
        <emissions CO_abs="2484.341054" CO2_abs="154168.413897" HC_abs="15.036754" PMx_abs="3.229595" NOx_abs="65.644947" fuel_abs="66.269798" electricity_abs="0"/>
    </tripinfo>
    <tripinfo id="W_R.0" depart="16.90" departLane="a4i_0" departPos="4.90" departSpeed="0.00" departDelay="1.60" arrival="43.80" arrivalLane="a1o_0" arrivalPos="174.27" arrivalSpeed="18.73" duration="26.90" routeLength="355.03" waitingTime="0.00" waitingCount="0" stopTime="0.00" timeLoss="7.42" rerouteNo="0" devices="tripinfo_W_R.0 emissions_W_R.0" vType="car" speedFactor="0.99" vaporized="">
        <emissions CO_abs="2637.688952" CO2_abs="157578.054107" HC_abs="15.781813" PMx_abs="3.303244" NOx_abs="67.479024" fuel_abs="67.735480" electricity_abs="0"/>
    </tripinfo>
    <tripinfo id="S_S.3" depart="17.50" departLane="a1i_0" departPos="4.90" departSpeed="0.00" departDelay="1.10" arrival="43.90" arrivalLane="a3o_1" arrivalPos="178.50" arrivalSpeed="17.58" duration="26.40" routeLength="396.73" waitingTime="0.00" waitingCount="0" stopTime="0.00" timeLoss="3.94" rerouteNo="0" devices="tripinfo_S_S.3 emissions_S_S.3" vType="car" speedFactor="0.93" vaporized="">
        <emissions CO_abs="1606.947201" CO2_abs="110858.753283" HC_abs="9.933946" PMx_abs="2.150712" NOx_abs="45.749944" fuel_abs="47.653136" electricity_abs="0"/>
    </tripinfo>
    <tripinfo id="N_R.1" depart="22.80" departLane="a3i_0" departPos="4.90" departSpeed="0.00" departDelay="0.00" arrival="49.00" arrivalLane="a4o_0" arrivalPos="176.18" arrivalSpeed="19.32" duration="26.20" routeLength="365.95" waitingTime="0.00" waitingCount="0" stopTime="0.00" timeLoss="6.50" rerouteNo="0" devices="tripinfo_N_R.1 emissions_N_R.1" vType="car" speedFactor="1.02" vaporized="">
        <emissions CO_abs="2449.014442" CO2_abs="150687.854547" HC_abs="14.774277" PMx_abs="3.134875" NOx_abs="64.146519" fuel_abs="64.773704" electricity_abs="0"/>
    </tripinfo>
    <tripinfo id="N_S.0" depart="25.80" departLane="a3i_0" departPos="4.90" departSpeed="0.00" departDelay="0.00" arrival="52.80" arrivalLane="a1o_1" arrivalPos="174.27" arrivalSpeed="16.83" duration="27.00" routeLength="393.21" waitingTime="0.00" waitingCount="0" stopTime="0.00" timeLoss="3.92" rerouteNo="0" devices="tripinfo_N_S.0 emissions_N_S.0" vType="car" speedFactor="0.89" vaporized="">
        <emissions CO_abs="1535.871046" CO2_abs="108165.648517" HC_abs="9.509685" PMx_abs="2.039114" NOx_abs="44.265700" fuel_abs="46.495550" electricity_abs="0"/>
    </tripinfo>
    <tripinfo id="S_S.4" depart="27.10" departLane="a1i_0" departPos="4.90" departSpeed="0.00" departDelay="0.00" arrival="55.80" arrivalLane="a3o_1" arrivalPos="178.50" arrivalSpeed="15.65" duration="28.70" routeLength="396.73" waitingTime="0.00" waitingCount="0" stopTime="0.00" timeLoss="3.55" rerouteNo="0" devices="tripinfo_S_S.4 emissions_S_S.4" vType="car" speedFactor="0.83" vaporized="">
        <emissions CO_abs="1402.165080" CO2_abs="102316.942413" HC_abs="8.747443" PMx_abs="1.846332" NOx_abs="41.424301" fuel_abs="43.981527" electricity_abs="0"/>
    </tripinfo>
    <tripinfo id="S_S.5" depart="29.40" departLane="a1i_0" departPos="4.90" departSpeed="0.00" departDelay="0.10" arrival="55.90" arrivalLane="a3o_2" arrivalPos="178.50" arrivalSpeed="17.64" duration="26.50" routeLength="396.73" waitingTime="0.00" waitingCount="0" stopTime="0.00" timeLoss="4.23" rerouteNo="0" devices="tripinfo_S_S.5 emissions_S_S.5" vType="car" speedFactor="0.93" vaporized="">
        <emissions CO_abs="1639.128029" CO2_abs="113479.684140" HC_abs="10.133709" PMx_abs="2.195429" NOx_abs="46.793275" fuel_abs="48.779758" electricity_abs="0"/>
    </tripinfo>
    <tripinfo id="S_R.1" depart="31.70" departLane="a1i_0" departPos="4.90" departSpeed="0.00" departDelay="0.70" arrival="57.50" arrivalLane="a2o_0" arrivalPos="181.00" arrivalSpeed="19.90" duration="25.80" routeLength="371.93" waitingTime="0.00" waitingCount="0" stopTime="0.00" timeLoss="6.55" rerouteNo="0" devices="tripinfo_S_R.1 emissions_S_R.1" vType="car" speedFactor="1.18" vaporized="">
        <emissions CO_abs="2537.229790" CO2_abs="155948.348496" HC_abs="15.317358" PMx_abs="3.275034" NOx_abs="66.529682" fuel_abs="67.034909" electricity_abs="0"/>
    </tripinfo>
    <tripinfo id="E_S.0" depart="6.80" departLane="a2i_0" departPos="4.90" departSpeed="0.00" departDelay="0.00" arrival="60.10" arrivalLane="a4o_1" arrivalPos="176.18" arrivalSpeed="19.85" duration="53.30" routeLength="395.22" waitingTime="23.10" waitingCount="1" stopTime="0.00" timeLoss="33.19" rerouteNo="0" devices="tripinfo_E_S.0 emissions_E_S.0" vType="car" speedFactor="1.05" vaporized="">
        <emissions CO_abs="6669.728988" CO2_abs="229538.034388" HC_abs="35.847993" PMx_abs="5.047867" NOx_abs="99.719278" fuel_abs="98.669805" electricity_abs="0"/>
    </tripinfo>
    <tripinfo id="E_S.1" depart="11.00" departLane="a2i_0" departPos="4.90" departSpeed="0.00" departDelay="0.00" arrival="60.20" arrivalLane="a4o_1" arrivalPos="176.18" arrivalSpeed="19.89" duration="49.20" routeLength="395.22" waitingTime="18.50" waitingCount="1" stopTime="0.00" timeLoss="29.23" rerouteNo="0" devices="tripinfo_E_S.1 emissions_E_S.1" vType="car" speedFactor="1.09" vaporized="">
        <emissions CO_abs="5987.075944" CO2_abs="219851.988125" HC_abs="32.527161" PMx_abs="4.812646" NOx_abs="95.506309" fuel_abs="94.505815" electricity_abs="0"/>
    </tripinfo>
    <tripinfo id="W_S.0" depart="0.00" departLane="a4i_0" departPos="4.90" departSpeed="0.00" departDelay="0.00" arrival="60.30" arrivalLane="a2o_1" arrivalPos="181.00" arrivalSpeed="19.95" duration="60.30" routeLength="395.22" waitingTime="30.20" waitingCount="1" stopTime="0.00" timeLoss="40.27" rerouteNo="0" devices="tripinfo_W_S.0 emissions_W_S.0" vType="car" speedFactor="1.06" vaporized="">
        <emissions CO_abs="7798.128700" CO2_abs="245738.591843" HC_abs="41.369741" PMx_abs="5.471460" NOx_abs="107.300803" fuel_abs="105.634267" electricity_abs="0"/>
    </tripinfo>
    <tripinfo id="W_S.3" depart="14.60" departLane="a4i_0" departPos="4.90" departSpeed="0.00" departDelay="0.00" arrival="60.40" arrivalLane="a2o_3" arrivalPos="181.00" arrivalSpeed="19.85" duration="45.80" routeLength="395.22" waitingTime="15.20" waitingCount="1" stopTime="0.00" timeLoss="25.68" rerouteNo="0" devices="tripinfo_W_S.3 emissions_W_S.3" vType="car" speedFactor="1.05" vaporized="">
        <emissions CO_abs="5456.732861" CO2_abs="210609.509303" HC_abs="29.905104" PMx_abs="4.597371" NOx_abs="91.409057" fuel_abs="90.532615" electricity_abs="0"/>
    </tripinfo>
    <tripinfo id="E_R.0" depart="33.70" departLane="a2i_0" departPos="4.90" departSpeed="0.00" departDelay="0.00" arrival="60.60" arrivalLane="a3o_0" arrivalPos="178.50" arrivalSpeed="19.01" duration="26.90" routeLength="363.97" waitingTime="0.00" waitingCount="0" stopTime="0.00" timeLoss="7.29" rerouteNo="0" devices="tripinfo_E_R.0 emissions_E_R.0" vType="car" speedFactor="1.01" vaporized="">
        <emissions CO_abs="2762.849084" CO2_abs="165786.093146" HC_abs="16.566624" PMx_abs="3.504192" NOx_abs="71.198414" fuel_abs="71.263681" electricity_abs="0"/>
    </tripinfo>
    <tripinfo id="W_S.1" depart="2.90" departLane="a4i_0" departPos="4.90" departSpeed="0.00" departDelay="0.70" arrival="60.90" arrivalLane="a2o_2" arrivalPos="181.00" arrivalSpeed="19.20" duration="58.00" routeLength="395.22" waitingTime="27.00" waitingCount="1" stopTime="0.00" timeLoss="37.46" rerouteNo="0" devices="tripinfo_W_S.1 emissions_W_S.1" vType="car" speedFactor="1.01" vaporized="">
        <emissions CO_abs="7347.458037" CO2_abs="240084.987571" HC_abs="39.186023" PMx_abs="5.313877" NOx_abs="104.780341" fuel_abs="103.203785" electricity_abs="0"/>
    </tripinfo>
    <tripinfo id="E_S.3" depart="18.20" departLane="a2i_0" departPos="4.90" departSpeed="0.00" departDelay="0.00" arrival="61.10" arrivalLane="a4o_3" arrivalPos="176.18" arrivalSpeed="17.78" duration="42.90" routeLength="395.22" waitingTime="11.10" waitingCount="1" stopTime="0.00" timeLoss="20.97" rerouteNo="0" devices="tripinfo_E_S.3 emissions_E_S.3" vType="car" speedFactor="0.94" vaporized="">
        <emissions CO_abs="4483.484020" CO2_abs="185706.270544" HC_abs="24.829210" PMx_abs="3.927848" NOx_abs="79.794404" fuel_abs="79.827613" electricity_abs="0"/>
    </tripinfo>
    <tripinfo id="E_S.2" depart="13.90" departLane="a2i_0" departPos="4.90" departSpeed="0.00" departDelay="0.00" arrival="61.30" arrivalLane="a4o_1" arrivalPos="176.18" arrivalSpeed="19.46" duration="47.40" routeLength="395.22" waitingTime="13.50" waitingCount="1" stopTime="0.00" timeLoss="27.07" rerouteNo="0" devices="tripinfo_E_S.2 emissions_E_S.2" vType="car" speedFactor="1.03" vaporized="">
        <emissions CO_abs="3923.325754" CO2_abs="180733.035572" HC_abs="22.202782" PMx_abs="3.847889" NOx_abs="77.686407" fuel_abs="77.689423" electricity_abs="0"/>
    </tripinfo>
    <tripinfo id="E_S.4" depart="20.50" departLane="a2i_0" departPos="4.90" departSpeed="0.00" departDelay="0.20" arrival="62.20" arrivalLane="a4o_2" arrivalPos="176.18" arrivalSpeed="17.71" duration="41.70" routeLength="395.22" waitingTime="6.70" waitingCount="1" stopTime="0.00" timeLoss="19.68" rerouteNo="0" devices="tripinfo_E_S.4 emissions_E_S.4" vType="car" speedFactor="0.94" vaporized="">
        <emissions CO_abs="2962.825491" CO2_abs="163873.940906" HC_abs="17.427198" PMx_abs="3.450165" NOx_abs="70.448477" fuel_abs="70.441940" electricity_abs="0"/>
    </tripinfo>
    <tripinfo id="E_S.5" depart="22.80" departLane="a2i_0" departPos="4.90" departSpeed="0.00" departDelay="0.50" arrival="62.20" arrivalLane="a4o_3" arrivalPos="176.18" arrivalSpeed="19.98" duration="39.40" routeLength="395.22" waitingTime="4.30" waitingCount="1" stopTime="0.00" timeLoss="19.54" rerouteNo="0" devices="tripinfo_E_S.5 emissions_E_S.5" vType="car" speedFactor="1.16" vaporized="">
        <emissions CO_abs="3069.947833" CO2_abs="174679.890258" HC_abs="18.151514" PMx_abs="3.639374" NOx_abs="74.637481" fuel_abs="75.086926" electricity_abs="0"/>
    </tripinfo>
    <tripinfo id="W_S.6" depart="28.50" departLane="a4i_0" departPos="4.90" departSpeed="0.00" departDelay="1.30" arrival="63.00" arrivalLane="a2o_3" arrivalPos="181.00" arrivalSpeed="16.48" duration="34.50" routeLength="395.22" waitingTime="0.00" waitingCount="0" stopTime="0.00" timeLoss="10.84" rerouteNo="0" devices="tripinfo_W_S.6 emissions_W_S.6" vType="car" speedFactor="0.87" vaporized="">
        <emissions CO_abs="2402.396502" CO2_abs="138815.343540" HC_abs="14.211684" PMx_abs="2.756480" NOx_abs="58.419768" fuel_abs="59.670565" electricity_abs="0"/>
    </tripinfo>
    <tripinfo id="W_S.4" depart="23.90" departLane="a4i_0" departPos="4.90" departSpeed="0.00" departDelay="0.00" arrival="63.10" arrivalLane="a2o_2" arrivalPos="181.00" arrivalSpeed="17.02" duration="39.20" routeLength="395.22" waitingTime="3.80" waitingCount="1" stopTime="0.00" timeLoss="18.66" rerouteNo="0" devices="tripinfo_W_S.4 emissions_W_S.4" vType="car" speedFactor="1.01" vaporized="">
        <emissions CO_abs="3573.729110" CO2_abs="196314.309574" HC_abs="21.021597" PMx_abs="4.251077" NOx_abs="85.383183" fuel_abs="84.386396" electricity_abs="0"/>
    </tripinfo>
    <tripinfo id="E_S.7" depart="30.70" departLane="a2i_0" departPos="4.90" departSpeed="0.00" departDelay="2.70" arrival="63.10" arrivalLane="a4o_1" arrivalPos="176.18" arrivalSpeed="19.99" duration="32.40" routeLength="395.22" waitingTime="0.00" waitingCount="0" stopTime="0.00" timeLoss="12.48" rerouteNo="0" devices="tripinfo_E_S.7 emissions_E_S.7" vType="car" speedFactor="1.13" vaporized="">
        <emissions CO_abs="3161.096775" CO2_abs="179031.194915" HC_abs="18.714789" PMx_abs="3.813189" NOx_abs="77.278467" fuel_abs="76.957220" electricity_abs="0"/>
    </tripinfo>
    <tripinfo id="E_S.8" depart="36.00" departLane="a2i_0" departPos="4.90" departSpeed="0.00" departDelay="0.50" arrival="63.30" arrivalLane="a4o_3" arrivalPos="176.18" arrivalSpeed="18.89" duration="27.30" routeLength="395.22" waitingTime="0.00" waitingCount="0" stopTime="0.00" timeLoss="6.58" rerouteNo="0" devices="tripinfo_E_S.8 emissions_E_S.8" vType="car" speedFactor="0.99" vaporized="">
        <emissions CO_abs="2054.758283" CO2_abs="136942.354121" HC_abs="12.613692" PMx_abs="2.740625" NOx_abs="57.356263" fuel_abs="58.865193" electricity_abs="0"/>
    </tripinfo>
    <tripinfo id="E_S.6" depart="27.70" departLane="a2i_0" departPos="4.90" departSpeed="0.00" departDelay="0.00" arrival="63.40" arrivalLane="a4o_2" arrivalPos="176.18" arrivalSpeed="17.35" duration="35.70" routeLength="395.22" waitingTime="0.00" waitingCount="0" stopTime="0.00" timeLoss="13.24" rerouteNo="0" devices="tripinfo_E_S.6 emissions_E_S.6" vType="car" speedFactor="0.92" vaporized="">
        <emissions CO_abs="2844.005867" CO2_abs="156236.167349" HC_abs="16.677110" PMx_abs="3.234394" NOx_abs="66.774383" fuel_abs="67.158911" electricity_abs="0"/>
    </tripinfo>
    <tripinfo id="W_S.2" depart="6.60" departLane="a4i_0" departPos="4.90" departSpeed="0.00" departDelay="0.00" arrival="63.60" arrivalLane="a2o_1" arrivalPos="181.00" arrivalSpeed="15.76" duration="57.00" routeLength="395.22" waitingTime="20.60" waitingCount="1" stopTime="0.00" timeLoss="32.13" rerouteNo="0" devices="tripinfo_W_S.2 emissions_W_S.2" vType="car" speedFactor="0.83" vaporized="">
        <emissions CO_abs="4526.677977" CO2_abs="167711.378543" HC_abs="24.577125" PMx_abs="3.496144" NOx_abs="71.889138" fuel_abs="72.092808" electricity_abs="0"/>
    </tripinfo>
    <tripinfo id="W_S.7" depart="32.50" departLane="a4i_0" departPos="4.90" departSpeed="0.00" departDelay="0.00" arrival="64.20" arrivalLane="a2o_2" arrivalPos="181.00" arrivalSpeed="19.36" duration="31.70" routeLength="395.22" waitingTime="0.00" waitingCount="0" stopTime="0.00" timeLoss="11.86" rerouteNo="0" devices="tripinfo_W_S.7 emissions_W_S.7" vType="car" speedFactor="1.15" vaporized="">
        <emissions CO_abs="3283.797570" CO2_abs="190207.975103" HC_abs="19.550428" PMx_abs="4.064311" NOx_abs="82.326951" fuel_abs="81.761503" electricity_abs="0"/>
    </tripinfo>
    <tripinfo id="W_S.8" depart="39.10" departLane="a4i_0" departPos="4.90" departSpeed="0.00" departDelay="0.00" arrival="64.30" arrivalLane="a2o_3" arrivalPos="181.00" arrivalSpeed="19.89" duration="25.20" routeLength="395.22" waitingTime="0.00" waitingCount="0" stopTime="0.00" timeLoss="5.41" rerouteNo="0" devices="tripinfo_W_S.8 emissions_W_S.8" vType="car" speedFactor="1.18" vaporized="">
        <emissions CO_abs="2365.256542" CO2_abs="147156.972892" HC_abs="14.321302" PMx_abs="3.120973" NOx_abs="62.856972" fuel_abs="63.255846" electricity_abs="0"/>
    </tripinfo>
    <tripinfo id="W_S.5" depart="26.20" departLane="a4i_0" departPos="4.90" departSpeed="0.00" departDelay="1.10" arrival="64.70" arrivalLane="a2o_1" arrivalPos="181.00" arrivalSpeed="18.17" duration="38.50" routeLength="395.22" waitingTime="2.00" waitingCount="1" stopTime="0.00" timeLoss="17.33" rerouteNo="0" devices="tripinfo_W_S.5 emissions_W_S.5" vType="car" speedFactor="0.98" vaporized="">
        <emissions CO_abs="2886.566280" CO2_abs="161797.146326" HC_abs="17.018313" PMx_abs="3.302773" NOx_abs="68.861019" fuel_abs="69.549350" electricity_abs="0"/>
    </tripinfo>
    <tripinfo id="E_R.1" depart="38.30" departLane="a2i_0" departPos="4.90" departSpeed="0.00" departDelay="1.10" arrival="65.00" arrivalLane="a3o_0" arrivalPos="178.50" arrivalSpeed="19.30" duration="26.70" routeLength="363.97" waitingTime="0.00" waitingCount="0" stopTime="0.00" timeLoss="7.25" rerouteNo="0" devices="tripinfo_E_R.1 emissions_E_R.1" vType="car" speedFactor="1.02" vaporized="">
        <emissions CO_abs="2604.390572" CO2_abs="157268.184724" HC_abs="15.638510" PMx_abs="3.301377" NOx_abs="67.310575" fuel_abs="67.602260" electricity_abs="0"/>
    </tripinfo>
    <tripinfo id="E_S.9" depart="40.80" departLane="a2i_0" departPos="4.90" departSpeed="0.00" departDelay="1.70" arrival="66.10" arrivalLane="a4o_3" arrivalPos="176.18" arrivalSpeed="18.41" duration="25.30" routeLength="395.22" waitingTime="0.00" waitingCount="0" stopTime="0.00" timeLoss="4.09" rerouteNo="0" devices="tripinfo_E_S.9 emissions_E_S.9" vType="car" speedFactor="0.97" vaporized="">
        <emissions CO_abs="1691.189685" CO2_abs="116090.897501" HC_abs="10.463520" PMx_abs="2.292801" NOx_abs="48.050236" fuel_abs="49.902157" electricity_abs="0"/>
    </tripinfo>
    <tripinfo id="N_R.2" depart="47.20" departLane="a3i_0" departPos="4.90" departSpeed="0.00" departDelay="0.00" arrival="73.50" arrivalLane="a4o_0" arrivalPos="176.18" arrivalSpeed="19.62" duration="26.30" routeLength="365.95" waitingTime="0.00" waitingCount="0" stopTime="0.00" timeLoss="6.79" rerouteNo="0" devices="tripinfo_N_R.2 emissions_N_R.2" vType="car" speedFactor="1.04" vaporized="">
        <emissions CO_abs="2674.654316" CO2_abs="163195.224270" HC_abs="16.097086" PMx_abs="3.438979" NOx_abs="69.839394" fuel_abs="70.149982" electricity_abs="0"/>
    </tripinfo>
    <tripinfo id="N_R.3" depart="51.90" departLane="a3i_0" departPos="4.90" departSpeed="0.00" departDelay="0.00" arrival="80.20" arrivalLane="a4o_0" arrivalPos="176.18" arrivalSpeed="16.62" duration="28.30" routeLength="365.95" waitingTime="0.00" waitingCount="0" stopTime="0.00" timeLoss="5.62" rerouteNo="0" devices="tripinfo_N_R.3 emissions_N_R.3" vType="car" speedFactor="0.88" vaporized="">
        <emissions CO_abs="2235.951770" CO2_abs="137816.409275" HC_abs="13.450578" PMx_abs="2.779756" NOx_abs="58.323244" fuel_abs="59.240971" electricity_abs="0"/>
    </tripinfo>
    <tripinfo id="E_S.10" depart="52.90" departLane="a2i_0" departPos="4.90" departSpeed="0.00" departDelay="0.00" arrival="80.80" arrivalLane="a4o_1" arrivalPos="176.18" arrivalSpeed="16.06" duration="27.90" routeLength="395.22" waitingTime="0.00" waitingCount="0" stopTime="0.00" timeLoss="3.62" rerouteNo="0" devices="tripinfo_E_S.10 emissions_E_S.10" vType="car" speedFactor="0.85" vaporized="">
        <emissions CO_abs="1453.706374" CO2_abs="103712.758912" HC_abs="9.049342" PMx_abs="1.924719" NOx_abs="42.337143" fuel_abs="44.581478" electricity_abs="0"/>
    </tripinfo>
    <tripinfo id="W_S.9" depart="56.30" departLane="a4i_0" departPos="4.90" departSpeed="0.00" departDelay="0.00" arrival="81.30" arrivalLane="a2o_1" arrivalPos="181.00" arrivalSpeed="18.91" duration="25.00" routeLength="395.22" waitingTime="0.00" waitingCount="0" stopTime="0.00" timeLoss="4.25" rerouteNo="0" devices="tripinfo_W_S.9 emissions_W_S.9" vType="car" speedFactor="1.00" vaporized="">
        <emissions CO_abs="1768.364722" CO2_abs="121685.508012" HC_abs="10.955009" PMx_abs="2.416650" NOx_abs="50.363721" fuel_abs="52.307009" electricity_abs="0"/>
    </tripinfo>
    <tripinfo id="N_R.4" depart="56.90" departLane="a3i_0" departPos="4.90" departSpeed="0.00" departDelay="2.30" arrival="83.10" arrivalLane="a4o_0" arrivalPos="176.18" arrivalSpeed="19.93" duration="26.20" routeLength="365.95" waitingTime="0.00" waitingCount="0" stopTime="0.00" timeLoss="6.92" rerouteNo="0" devices="tripinfo_N_R.4 emissions_N_R.4" vType="car" speedFactor="1.10" vaporized="">
        <emissions CO_abs="2744.519092" CO2_abs="166022.962976" HC_abs="16.495527" PMx_abs="3.516706" NOx_abs="71.204766" fuel_abs="71.365485" electricity_abs="0"/>
    </tripinfo>
    <tripinfo id="E_S.11" depart="62.00" departLane="a2i_0" departPos="4.90" departSpeed="0.00" departDelay="0.00" arrival="86.70" arrivalLane="a4o_1" arrivalPos="176.18" arrivalSpeed="19.40" duration="24.70" routeLength="395.22" waitingTime="0.00" waitingCount="0" stopTime="0.00" timeLoss="4.35" rerouteNo="0" devices="tripinfo_E_S.11 emissions_E_S.11" vType="car" speedFactor="1.02" vaporized="">
        <emissions CO_abs="2024.069286" CO2_abs="132731.873308" HC_abs="12.404942" PMx_abs="2.730241" NOx_abs="55.789428" fuel_abs="57.055248" electricity_abs="0"/>
    </tripinfo>
    <tripinfo id="W_S.10" depart="62.10" departLane="a4i_0" departPos="4.90" departSpeed="0.00" departDelay="0.00" arrival="87.60" arrivalLane="a2o_1" arrivalPos="181.00" arrivalSpeed="18.32" duration="25.50" routeLength="395.22" waitingTime="0.00" waitingCount="0" stopTime="0.00" timeLoss="4.14" rerouteNo="0" devices="tripinfo_W_S.10 emissions_W_S.10" vType="car" speedFactor="0.97" vaporized="">
        <emissions CO_abs="1718.877864" CO2_abs="118792.764496" HC_abs="10.637511" PMx_abs="2.334347" NOx_abs="49.081287" fuel_abs="51.063572" electricity_abs="0"/>
    </tripinfo>
    <tripinfo id="S_R.2" depart="61.00" departLane="a1i_0" departPos="4.90" departSpeed="0.00" departDelay="0.00" arrival="87.90" arrivalLane="a2o_0" arrivalPos="181.00" arrivalSpeed="19.07" duration="26.90" routeLength="371.93" waitingTime="0.00" waitingCount="0" stopTime="0.00" timeLoss="7.61" rerouteNo="0" devices="tripinfo_S_R.2 emissions_S_R.2" vType="car" speedFactor="1.14" vaporized="">
        <emissions CO_abs="2779.496801" CO2_abs="170595.798991" HC_abs="16.760669" PMx_abs="3.595098" NOx_abs="73.130869" fuel_abs="73.331117" electricity_abs="0"/>
    </tripinfo>
    <tripinfo id="S_L.0" depart="19.80" departLane="a1i_0" departPos="4.90" departSpeed="0.00" departDelay="1.80" arrival="93.40" arrivalLane="a4o_2" arrivalPos="176.18" arrivalSpeed="16.66" duration="73.60" routeLength="390.41" waitingTime="40.00" waitingCount="1" stopTime="0.00" timeLoss="49.37" rerouteNo="0" devices="tripinfo_S_L.0 emissions_S_L.0" vType="car" speedFactor="0.88" vaporized="">
        <emissions CO_abs="9238.354878" CO2_abs="257760.531664" HC_abs="48.136804" PMx_abs="5.709137" NOx_abs="112.882648" fuel_abs="110.802962" electricity_abs="0"/>
    </tripinfo>
    <tripinfo id="S_L.1" depart="43.80" departLane="a1i_0" departPos="4.90" departSpeed="0.00" departDelay="1.10" arrival="94.60" arrivalLane="a4o_2" arrivalPos="176.18" arrivalSpeed="19.48" duration="50.80" routeLength="390.41" waitingTime="13.90" waitingCount="1" stopTime="0.00" timeLoss="29.88" rerouteNo="0" devices="tripinfo_S_L.1 emissions_S_L.1" vType="car" speedFactor="1.03" vaporized="">
        <emissions CO_abs="4399.853625" CO2_abs="196053.131635" HC_abs="24.720564" PMx_abs="4.212022" NOx_abs="85.030640" fuel_abs="84.274888" electricity_abs="0"/>
    </tripinfo>
    <tripinfo id="E_S.12" depart="67.60" departLane="a2i_0" departPos="4.90" departSpeed="0.00" departDelay="0.00" arrival="94.60" arrivalLane="a4o_1" arrivalPos="176.18" arrivalSpeed="17.14" duration="27.00" routeLength="395.22" waitingTime="0.00" waitingCount="0" stopTime="0.00" timeLoss="4.24" rerouteNo="0" devices="tripinfo_E_S.12 emissions_E_S.12" vType="car" speedFactor="0.91" vaporized="">
        <emissions CO_abs="1910.571511" CO2_abs="129466.012383" HC_abs="11.741103" PMx_abs="2.555701" NOx_abs="53.932482" fuel_abs="55.651485" electricity_abs="0"/>
    </tripinfo>
    <tripinfo id="N_R.5" depart="70.30" departLane="a3i_0" departPos="4.90" departSpeed="0.00" departDelay="0.00" arrival="96.70" arrivalLane="a4o_0" arrivalPos="176.18" arrivalSpeed="19.74" duration="26.40" routeLength="365.95" waitingTime="0.00" waitingCount="0" stopTime="0.00" timeLoss="6.93" rerouteNo="0" devices="tripinfo_N_R.5 emissions_N_R.5" vType="car" speedFactor="1.04" vaporized="">
        <emissions CO_abs="2769.828769" CO2_abs="168175.380590" HC_abs="16.669698" PMx_abs="3.553444" NOx_abs="72.088463" fuel_abs="72.290713" electricity_abs="0"/>
    </tripinfo>
    <tripinfo id="N_L.0" depart="6.60" departLane="a3i_0" departPos="4.90" departSpeed="0.00" departDelay="0.00" arrival="102.00" arrivalLane="a2o_2" arrivalPos="181.00" arrivalSpeed="19.53" duration="95.40" routeLength="393.34" waitingTime="63.40" waitingCount="1" stopTime="0.00" timeLoss="74.49" rerouteNo="0" devices="tripinfo_N_L.0 emissions_N_L.0" vType="car" speedFactor="1.03" vaporized="">
        <emissions CO_abs="13511.216947" CO2_abs="341657.629362" HC_abs="69.645008" PMx_abs="7.861236" NOx_abs="151.453864" fuel_abs="146.868278" electricity_abs="0"/>
    </tripinfo>
    <tripinfo id="N_L.1" depart="35.30" departLane="a3i_0" departPos="4.90" departSpeed="0.00" departDelay="0.00" arrival="103.50" arrivalLane="a2o_2" arrivalPos="181.00" arrivalSpeed="19.90" duration="68.20" routeLength="393.34" waitingTime="32.20" waitingCount="1" stopTime="0.00" timeLoss="47.88" rerouteNo="0" devices="tripinfo_N_L.1 emissions_N_L.1" vType="car" speedFactor="1.17" vaporized="">
        <emissions CO_abs="7360.258232" CO2_abs="244306.998913" HC_abs="39.353002" PMx_abs="5.402734" NOx_abs="106.716115" fuel_abs="105.018570" electricity_abs="0"/>
    </tripinfo>
    <tripinfo id="N_L.2" depart="60.60" departLane="a3i_0" departPos="4.90" departSpeed="0.00" departDelay="4.40" arrival="105.60" arrivalLane="a2o_2" arrivalPos="181.00" arrivalSpeed="19.04" duration="45.00" routeLength="393.34" waitingTime="7.60" waitingCount="1" stopTime="0.00" timeLoss="23.83" rerouteNo="0" devices="tripinfo_N_L.2 emissions_N_L.2" vType="car" speedFactor="1.00" vaporized="">
        <emissions CO_abs="3296.631316" CO2_abs="175958.470298" HC_abs="19.232449" PMx_abs="3.675398" NOx_abs="75.460232" fuel_abs="75.636672" electricity_abs="0"/>
    </tripinfo>
    <tripinfo id="N_L.3" depart="61.30" departLane="a3i_0" departPos="4.90" departSpeed="0.00" departDelay="4.20" arrival="108.10" arrivalLane="a2o_2" arrivalPos="181.00" arrivalSpeed="17.05" duration="46.80" routeLength="393.34" waitingTime="5.80" waitingCount="1" stopTime="0.00" timeLoss="23.13" rerouteNo="0" devices="tripinfo_N_L.3 emissions_N_L.3" vType="car" speedFactor="0.90" vaporized="">
        <emissions CO_abs="3097.162683" CO2_abs="158243.769696" HC_abs="17.852286" PMx_abs="3.225748" NOx_abs="67.515269" fuel_abs="68.022128" electricity_abs="0"/>
    </tripinfo>
    <tripinfo id="N_L.4" depart="67.30" departLane="a3i_0" departPos="4.90" departSpeed="0.00" departDelay="3.60" arrival="109.30" arrivalLane="a2o_2" arrivalPos="181.00" arrivalSpeed="19.27" duration="42.00" routeLength="393.34" waitingTime="2.20" waitingCount="1" stopTime="0.00" timeLoss="20.95" rerouteNo="0" devices="tripinfo_N_L.4 emissions_N_L.4" vType="car" speedFactor="1.02" vaporized="">