<?xml version="1.0" encoding="UTF-8"?>

<!-- generated on 12/03/19 22:57:55 by Eclipse SUMO GUI Version 1.3.1
<configuration xmlns:xsi="http://www.w3.org/2001/XMLSchema-instance" xsi:noNamespaceSchemaLocation="http://sumo.dlr.de/xsd/sumoConfiguration.xsd">

    <input>
        <net-file value="../cfg11B/intersection.net.xml"/>
        <route-files value="../cfg11B/intersection.rou.xml"/>
        <additional-files value="../cfg11B/intersection.det.xml"/>
    </input>

    <output>
        <tripinfo-output value="../result/tripinfo11BB.xml"/>
    </output>

    <time>
        <begin value="0"/>
        <end value="3800"/>
        <step-length value="0.1"/>
    </time>

    <processing>
        <collision.action value="none"/>
    </processing>

    <emissions>
        <device.emissions.probability value="1"/>
    </emissions>

    <traci_server>
        <remote-port value="60098"/>
    </traci_server>

    <gui_only>
        <tracker-interval value="0.1"/>
    </gui_only>

</configuration>
-->

<tripinfos xmlns:xsi="http://www.w3.org/2001/XMLSchema-instance" xsi:noNamespaceSchemaLocation="http://sumo.dlr.de/xsd/tripinfo_file.xsd">
    <tripinfo id="W_S.0" depart="0.00" departLane="a4i_0" departPos="4.90" departSpeed="0.00" departDelay="0.00" arrival="24.20" arrivalLane="a2o_1" arrivalPos="181.00" arrivalSpeed="19.95" duration="24.20" routeLength="395.22" waitingTime="0.00" waitingCount="0" stopTime="0.00" timeLoss="4.18" rerouteNo="0" devices="tripinfo_W_S.0 emissions_W_S.0" vType="car" speedFactor="1.06" vaporized="">
        <emissions CO_abs="1784.086490" CO2_abs="121504.500361" HC_abs="11.018255" PMx_abs="2.438962" NOx_abs="50.361726" fuel_abs="52.229186" electricity_abs="0"/>
    </tripinfo>
    <tripinfo id="E_S.0" depart="2.00" departLane="a2i_0" departPos="4.90" departSpeed="0.00" departDelay="0.00" arrival="26.80" arrivalLane="a4o_1" arrivalPos="176.18" arrivalSpeed="19.10" duration="24.80" routeLength="395.22" waitingTime="0.00" waitingCount="0" stopTime="0.00" timeLoss="4.28" rerouteNo="0" devices="tripinfo_E_S.0 emissions_E_S.0" vType="car" speedFactor="1.01" vaporized="">
        <emissions CO_abs="1783.131632" CO2_abs="120790.666282" HC_abs="11.009705" PMx_abs="2.419211" NOx_abs="50.176253" fuel_abs="51.922346" electricity_abs="0"/>
    </tripinfo>
    <tripinfo id="W_S.1" depart="2.90" departLane="a4i_0" departPos="4.90" departSpeed="0.00" departDelay="0.70" arrival="27.10" arrivalLane="a2o_1" arrivalPos="181.00" arrivalSpeed="19.88" duration="24.20" routeLength="395.22" waitingTime="0.00" waitingCount="0" stopTime="0.00" timeLoss="4.22" rerouteNo="0" devices="tripinfo_W_S.1 emissions_W_S.1" vType="car" speedFactor="1.08" vaporized="">
        <emissions CO_abs="1763.078138" CO2_abs="119541.246843" HC_abs="10.881966" PMx_abs="2.399935" NOx_abs="49.547708" fuel_abs="51.385282" electricity_abs="0"/>
    </tripinfo>
    <tripinfo id="E_S.1" depart="4.30" departLane="a2i_0" departPos="4.90" departSpeed="0.00" departDelay="2.00" arrival="28.90" arrivalLane="a4o_1" arrivalPos="176.18" arrivalSpeed="19.51" duration="24.60" routeLength="395.22" waitingTime="0.00" waitingCount="0" stopTime="0.00" timeLoss="4.29" rerouteNo="0" devices="tripinfo_E_S.1 emissions_E_S.1" vType="car" speedFactor="1.03" vaporized="">
        <emissions CO_abs="1779.727635" CO2_abs="120393.242404" HC_abs="10.969206" PMx_abs="2.411850" NOx_abs="49.941048" fuel_abs="51.751518" electricity_abs="0"/>
    </tripinfo>
    <tripinfo id="E_S.2" depart="6.60" departLane="a2i_0" departPos="4.90" departSpeed="0.00" departDelay="1.90" arrival="31.10" arrivalLane="a4o_1" arrivalPos="176.18" arrivalSpeed="19.87" duration="24.50" routeLength="395.22" waitingTime="0.00" waitingCount="0" stopTime="0.00" timeLoss="4.35" rerouteNo="0" devices="tripinfo_E_S.2 emissions_E_S.2" vType="car" speedFactor="1.05" vaporized="">
        <emissions CO_abs="1813.808986" CO2_abs="123548.159886" HC_abs="11.193623" PMx_abs="2.473742" NOx_abs="51.200871" fuel_abs="53.107666" electricity_abs="0"/>
    </tripinfo>
    <tripinfo id="W_S.2" depart="6.60" departLane="a4i_0" departPos="4.90" departSpeed="0.00" departDelay="0.00" arrival="32.60" arrivalLane="a2o_1" arrivalPos="181.00" arrivalSpeed="17.72" duration="26.00" routeLength="395.22" waitingTime="0.00" waitingCount="0" stopTime="0.00" timeLoss="3.94" rerouteNo="0" devices="tripinfo_W_S.2 emissions_W_S.2" vType="car" speedFactor="0.94" vaporized="">
        <emissions CO_abs="1641.632472" CO2_abs="113594.376501" HC_abs="10.181074" PMx_abs="2.219174" NOx_abs="46.967071" fuel_abs="48.829033" electricity_abs="0"/>
    </tripinfo>
    <tripinfo id="N_R.0" depart="8.60" departLane="a3i_0" departPos="4.90" departSpeed="0.00" departDelay="0.00" arrival="34.40" arrivalLane="a4o_0" arrivalPos="176.18" arrivalSpeed="19.41" duration="25.80" routeLength="365.95" waitingTime="0.00" waitingCount="0" stopTime="0.00" timeLoss="6.22" rerouteNo="0" devices="tripinfo_N_R.0 emissions_N_R.0" vType="car" speedFactor="1.03" vaporized="">
        <emissions CO_abs="2461.750584" CO2_abs="150679.841889" HC_abs="14.831116" PMx_abs="3.159577" NOx_abs="64.315545" fuel_abs="64.770231" electricity_abs="0"/>
    </tripinfo>
    <tripinfo id="E_S.4" depart="11.20" departLane="a2i_0" departPos="4.90" departSpeed="0.00" departDelay="2.30" arrival="35.60" arrivalLane="a4o_2" arrivalPos="176.18" arrivalSpeed="19.97" duration="24.40" routeLength="395.22" waitingTime="0.00" waitingCount="0" stopTime="0.00" timeLoss="4.50" rerouteNo="0" devices="tripinfo_E_S.4 emissions_E_S.4" vType="car" speedFactor="1.12" vaporized="">
        <emissions CO_abs="1899.048341" CO2_abs="124664.546315" HC_abs="11.621858" PMx_abs="2.548359" NOx_abs="52.184356" fuel_abs="53.587511" electricity_abs="0"/>
    </tripinfo>
    <tripinfo id="E_S.3" depart="8.90" departLane="a2i_0" departPos="4.90" departSpeed="0.00" departDelay="2.10" arrival="36.80" arrivalLane="a4o_1" arrivalPos="176.18" arrivalSpeed="16.26" duration="27.90" routeLength="395.22" waitingTime="0.00" waitingCount="0" stopTime="0.00" timeLoss="3.82" rerouteNo="0" devices="tripinfo_E_S.3 emissions_E_S.3" vType="car" speedFactor="0.86" vaporized="">
        <emissions CO_abs="1470.588495" CO2_abs="102533.694778" HC_abs="9.096389" PMx_abs="1.918869" NOx_abs="41.985652" fuel_abs="44.074652" electricity_abs="0"/>
    </tripinfo>
    <tripinfo id="W_S.3" depart="14.60" departLane="a4i_0" departPos="4.90" departSpeed="0.00" departDelay="0.00" arrival="39.50" arrivalLane="a2o_1" arrivalPos="181.00" arrivalSpeed="19.14" duration="24.90" routeLength="395.22" waitingTime="0.00" waitingCount="0" stopTime="0.00" timeLoss="4.34" rerouteNo="0" devices="tripinfo_W_S.3 emissions_W_S.3" vType="car" speedFactor="1.01" vaporized="">
        <emissions CO_abs="1782.696918" CO2_abs="122213.780882" HC_abs="11.012481" PMx_abs="2.427868" NOx_abs="50.560912" fuel_abs="52.534093" electricity_abs="0"/>
    </tripinfo>
    <tripinfo id="E_S.5" depart="13.50" departLane="a2i_0" departPos="4.90" departSpeed="0.00" departDelay="2.50" arrival="39.90" arrivalLane="a4o_1" arrivalPos="176.18" arrivalSpeed="17.59" duration="26.40" routeLength="395.22" waitingTime="0.00" waitingCount="0" stopTime="0.00" timeLoss="4.10" rerouteNo="0" devices="tripinfo_E_S.5 emissions_E_S.5" vType="car" speedFactor="0.93" vaporized="">
        <emissions CO_abs="1583.364926" CO2_abs="111950.872647" HC_abs="9.799017" PMx_abs="2.127846" NOx_abs="45.790333" fuel_abs="48.122626" electricity_abs="0"/>
    </tripinfo>
    <tripinfo id="E_S.6" depart="16.50" departLane="a2i_0" departPos="4.90" departSpeed="0.00" departDelay="3.80" arrival="41.10" arrivalLane="a4o_1" arrivalPos="176.18" arrivalSpeed="19.96" duration="24.60" routeLength="395.22" waitingTime="0.00" waitingCount="0" stopTime="0.00" timeLoss="4.74" rerouteNo="0" devices="tripinfo_E_S.6 emissions_E_S.6" vType="car" speedFactor="1.16" vaporized="">
        <emissions CO_abs="1785.172295" CO2_abs="119560.670542" HC_abs="10.957160" PMx_abs="2.404741" NOx_abs="49.690479" fuel_abs="51.393627" electricity_abs="0"/>
    </tripinfo>
    <tripinfo id="S_R.0" depart="16.10" departLane="a1i_0" departPos="4.90" departSpeed="0.00" departDelay="0.90" arrival="43.00" arrivalLane="a2o_0" arrivalPos="181.00" arrivalSpeed="18.46" duration="26.90" routeLength="371.93" waitingTime="0.00" waitingCount="0" stopTime="0.00" timeLoss="6.36" rerouteNo="0" devices="tripinfo_S_R.0 emissions_S_R.0" vType="car" speedFactor="0.98" vaporized="">
        <emissions CO_abs="2566.333450" CO2_abs="158824.762679" HC_abs="15.503337" PMx_abs="3.313618" NOx_abs="67.775359" fuel_abs="68.271345" electricity_abs="0"/>
    </tripinfo>
    <tripinfo id="W_S.4" depart="19.20" departLane="a4i_0" departPos="4.90" departSpeed="0.00" departDelay="1.50" arrival="43.30" arrivalLane="a2o_1" arrivalPos="181.00" arrivalSpeed="19.99" duration="24.10" routeLength="395.22" waitingTime="0.00" waitingCount="0" stopTime="0.00" timeLoss="4.19" rerouteNo="0" devices="tripinfo_W_S.4 emissions_W_S.4" vType="car" speedFactor="1.13" vaporized="">
        <emissions CO_abs="1705.604273" CO2_abs="116668.778385" HC_abs="10.540133" PMx_abs="2.326408" NOx_abs="48.161622" fuel_abs="50.150559" electricity_abs="0"/>
    </tripinfo>
    <tripinfo id="E_S.7" depart="18.80" departLane="a2i_0" departPos="4.90" departSpeed="0.00" departDelay="4.90" arrival="43.60" arrivalLane="a4o_1" arrivalPos="176.18" arrivalSpeed="19.28" duration="24.80" routeLength="395.22" waitingTime="0.00" waitingCount="0" stopTime="0.00" timeLoss="4.39" rerouteNo="0" devices="tripinfo_E_S.7 emissions_E_S.7" vType="car" speedFactor="1.02" vaporized="">
        <emissions CO_abs="1781.942956" CO2_abs="119062.526408" HC_abs="10.942388" PMx_abs="2.388328" NOx_abs="49.503880" fuel_abs="51.179508" electricity_abs="0"/>
    </tripinfo>
    <tripinfo id="W_R.0" depart="16.90" departLane="a4i_0" departPos="4.90" departSpeed="0.00" departDelay="1.60" arrival="44.90" arrivalLane="a1o_0" arrivalPos="174.27" arrivalSpeed="16.88" duration="28.00" routeLength="355.03" waitingTime="0.00" waitingCount="0" stopTime="0.00" timeLoss="6.35" rerouteNo="0" devices="tripinfo_W_R.0 emissions_W_R.0" vType="car" speedFactor="0.89" vaporized="">
        <emissions CO_abs="2159.401408" CO2_abs="131283.039450" HC_abs="12.916912" PMx_abs="2.617832" NOx_abs="55.294492" fuel_abs="56.432648" electricity_abs="0"/>
    </tripinfo>
    <tripinfo id="W_S.5" depart="23.90" departLane="a4i_0" departPos="4.90" departSpeed="0.00" departDelay="0.00" arrival="49.30" arrivalLane="a2o_1" arrivalPos="181.00" arrivalSpeed="18.41" duration="25.40" routeLength="395.22" waitingTime="0.00" waitingCount="0" stopTime="0.00" timeLoss="4.19" rerouteNo="0" devices="tripinfo_W_S.5 emissions_W_S.5" vType="car" speedFactor="0.97" vaporized="">
        <emissions CO_abs="1707.849107" CO2_abs="115410.600796" HC_abs="10.523575" PMx_abs="2.292271" NOx_abs="47.912588" fuel_abs="49.609725" electricity_abs="0"/>
    </tripinfo>
    <tripinfo id="E_S.8" depart="21.20" departLane="a2i_0" departPos="4.90" departSpeed="0.00" departDelay="5.00" arrival="49.70" arrivalLane="a4o_1" arrivalPos="176.18" arrivalSpeed="15.59" duration="28.50" routeLength="395.22" waitingTime="0.00" waitingCount="0" stopTime="0.00" timeLoss="3.48" rerouteNo="0" devices="tripinfo_E_S.8 emissions_E_S.8" vType="car" speedFactor="0.83" vaporized="">
        <emissions CO_abs="1383.700018" CO2_abs="99379.894250" HC_abs="8.573471" PMx_abs="1.807485" NOx_abs="40.344127" fuel_abs="42.719011" electricity_abs="0"/>
    </tripinfo>
    <tripinfo id="E_S.9" depart="23.50" departLane="a2i_0" departPos="4.90" departSpeed="0.00" departDelay="6.80" arrival="50.10" arrivalLane="a4o_2" arrivalPos="176.18" arrivalSpeed="17.43" duration="26.60" routeLength="395.22" waitingTime="0.00" waitingCount="0" stopTime="0.00" timeLoss="4.08" rerouteNo="0" devices="tripinfo_E_S.9 emissions_E_S.9" vType="car" speedFactor="0.92" vaporized="">
        <emissions CO_abs="1568.035056" CO2_abs="109929.102276" HC_abs="9.724343" PMx_abs="2.105786" NOx_abs="45.171720" fuel_abs="47.253541" electricity_abs="0"/>
    </tripinfo>
    <tripinfo id="N_R.1" depart="22.80" departLane="a3i_0" departPos="4.90" departSpeed="0.00" departDelay="0.00" arrival="50.50" arrivalLane="a4o_0" arrivalPos="176.18" arrivalSpeed="18.65" duration="27.70" routeLength="365.95" waitingTime="0.00" waitingCount="0" stopTime="0.00" timeLoss="7.66" rerouteNo="0" devices="tripinfo_N_R.1 emissions_N_R.1" vType="car" speedFactor="0.99" vaporized="">
        <emissions CO_abs="3419.229531" CO2_abs="201229.082614" HC_abs="20.448236" PMx_abs="4.365667" NOx_abs="87.500560" fuel_abs="86.498815" electricity_abs="0"/>
    </tripinfo>
    <tripinfo id="E_S.10" depart="25.70" departLane="a2i_0" departPos="4.90" departSpeed="0.00" departDelay="7.50" arrival="51.20" arrivalLane="a4o_1" arrivalPos="176.18" arrivalSpeed="19.96" duration="25.50" routeLength="395.22" waitingTime="0.00" waitingCount="0" stopTime="0.00" timeLoss="5.71" rerouteNo="0" devices="tripinfo_E_S.10 emissions_E_S.10" vType="car" speedFactor="1.18" vaporized="">
        <emissions CO_abs="1818.699177" CO2_abs="119257.733948" HC_abs="11.120570" PMx_abs="2.418816" NOx_abs="50.018561" fuel_abs="51.263381" electricity_abs="0"/>
    </tripinfo>
    <tripinfo id="E_S.11" depart="27.90" departLane="a2i_0" departPos="4.90" departSpeed="0.00" departDelay="7.60" arrival="52.40" arrivalLane="a4o_1" arrivalPos="176.18" arrivalSpeed="19.93" duration="24.50" routeLength="395.22" waitingTime="0.00" waitingCount="0" stopTime="0.00" timeLoss="4.66" rerouteNo="0" devices="tripinfo_E_S.11 emissions_E_S.11" vType="car" speedFactor="1.15" vaporized="">
        <emissions CO_abs="1758.598310" CO2_abs="115709.665152" HC_abs="10.778717" PMx_abs="2.345448" NOx_abs="48.289130" fuel_abs="49.738254" electricity_abs="0"/>
    </tripinfo>
    <tripinfo id="W_S.6" depart="26.20" departLane="a4i_0" departPos="4.90" departSpeed="0.00" departDelay="1.10" arrival="53.00" arrivalLane="a2o_1" arrivalPos="181.00" arrivalSpeed="17.06" duration="26.80" routeLength="395.22" waitingTime="0.00" waitingCount="0" stopTime="0.00" timeLoss="3.90" rerouteNo="0" devices="tripinfo_W_S.6 emissions_W_S.6" vType="car" speedFactor="0.90" vaporized="">
        <emissions CO_abs="1533.429326" CO2_abs="108146.983443" HC_abs="9.500245" PMx_abs="2.046305" NOx_abs="44.281645" fuel_abs="46.487516" electricity_abs="0"/>
    </tripinfo>
    <tripinfo id="W_S.7" depart="28.50" departLane="a4i_0" departPos="4.90" departSpeed="0.00" departDelay="1.60" arrival="53.10" arrivalLane="a2o_2" arrivalPos="181.00" arrivalSpeed="19.64" duration="24.60" routeLength="395.22" waitingTime="0.00" waitingCount="0" stopTime="0.00" timeLoss="4.35" rerouteNo="0" devices="tripinfo_W_S.7 emissions_W_S.7" vType="car" speedFactor="1.04" vaporized="">
        <emissions CO_abs="1815.843300" CO2_abs="125138.491484" HC_abs="11.261823" PMx_abs="2.501750" NOx_abs="51.823405" fuel_abs="53.791269" electricity_abs="0"/>
    </tripinfo>
    <tripinfo id="E_S.12" depart="30.80" departLane="a2i_0" departPos="4.90" departSpeed="0.00" departDelay="8.50" arrival="54.70" arrivalLane="a4o_1" arrivalPos="176.18" arrivalSpeed="19.94" duration="23.90" routeLength="395.22" waitingTime="0.00" waitingCount="0" stopTime="0.00" timeLoss="4.13" rerouteNo="0" devices="tripinfo_E_S.12 emissions_E_S.12" vType="car" speedFactor="1.17" vaporized="">
        <emissions CO_abs="1639.924221" CO2_abs="111938.052987" HC_abs="10.144056" PMx_abs="2.231627" NOx_abs="46.209984" fuel_abs="48.117043" electricity_abs="0"/>
    </tripinfo>
    <tripinfo id="W_S.8" depart="30.80" departLane="a4i_0" departPos="4.90" departSpeed="0.00" departDelay="3.60" arrival="54.90" arrivalLane="a2o_1" arrivalPos="181.00" arrivalSpeed="19.88" duration="24.10" routeLength="395.22" waitingTime="0.00" waitingCount="0" stopTime="0.00" timeLoss="4.14" rerouteNo="0" devices="tripinfo_W_S.8 emissions_W_S.8" vType="car" speedFactor="1.09" vaporized="">
        <emissions CO_abs="1783.799968" CO2_abs="119173.111150" HC_abs="10.970511" PMx_abs="2.413858" NOx_abs="49.606794" fuel_abs="51.227019" electricity_abs="0"/>
    </tripinfo>
    <tripinfo id="E_S.13" depart="33.00" departLane="a2i_0" departPos="4.90" departSpeed="0.00" departDelay="5.30" arrival="58.00" arrivalLane="a4o_1" arrivalPos="176.18" arrivalSpeed="18.91" duration="25.00" routeLength="395.22" waitingTime="0.00" waitingCount="0" stopTime="0.00" timeLoss="4.31" rerouteNo="0" devices="tripinfo_E_S.13 emissions_E_S.13" vType="car" speedFactor="1.00" vaporized="">
        <emissions CO_abs="1778.331052" CO2_abs="120145.448860" HC_abs="10.964926" PMx_abs="2.402844" NOx_abs="49.916489" fuel_abs="51.645002" electricity_abs="0"/>
    </tripinfo>
    <tripinfo id="S_R.1" depart="32.10" departLane="a1i_0" departPos="4.90" departSpeed="0.00" departDelay="1.10" arrival="59.10" arrivalLane="a2o_0" arrivalPos="181.00" arrivalSpeed="18.96" duration="27.00" routeLength="371.93" waitingTime="0.00" waitingCount="0" stopTime="0.00" timeLoss="7.02" rerouteNo="0" devices="tripinfo_S_R.1 emissions_S_R.1" vType="car" speedFactor="1.00" vaporized="">
        <emissions CO_abs="2752.196585" CO2_abs="168295.213021" HC_abs="16.582528" PMx_abs="3.541002" NOx_abs="72.089783" fuel_abs="72.342223" electricity_abs="0"/>
    </tripinfo>
    <tripinfo id="W_S.9" depart="34.40" departLane="a4i_0" departPos="4.90" departSpeed="0.00" departDelay="1.90" arrival="61.30" arrivalLane="a2o_1" arrivalPos="181.00" arrivalSpeed="17.04" duration="26.90" routeLength="395.22" waitingTime="0.00" waitingCount="0" stopTime="0.00" timeLoss="3.93" rerouteNo="0" devices="tripinfo_W_S.9 emissions_W_S.9" vType="car" speedFactor="0.90" vaporized="">
        <emissions CO_abs="1586.550150" CO2_abs="110722.054484" HC_abs="9.829472" PMx_abs="2.114872" NOx_abs="45.511118" fuel_abs="47.594406" electricity_abs="0"/>
    </tripinfo>
    <tripinfo id="E_R.0" depart="37.70" departLane="a2i_0" departPos="4.90" departSpeed="0.00" departDelay="4.00" arrival="63.80" arrivalLane="a3o_0" arrivalPos="178.50" arrivalSpeed="19.96" duration="26.10" routeLength="363.97" waitingTime="0.00" waitingCount="0" stopTime="0.00" timeLoss="7.06" rerouteNo="0" devices="tripinfo_E_R.0 emissions_E_R.0" vType="car" speedFactor="1.14" vaporized="">
        <emissions CO_abs="2617.716579" CO2_abs="159047.840006" HC_abs="15.743915" PMx_abs="3.347181" NOx_abs="67.983361" fuel_abs="68.367239" electricity_abs="0"/>
    </tripinfo>
    <tripinfo id="E_L.0" depart="15.90" departLane="a2i_0" departPos="4.90" departSpeed="0.00" departDelay="4.10" arrival="65.50" arrivalLane="a1o_2" arrivalPos="174.27" arrivalSpeed="17.82" duration="49.60" routeLength="393.74" waitingTime="16.80" waitingCount="1" stopTime="0.00" timeLoss="27.39" rerouteNo="0" devices="tripinfo_E_L.0 emissions_E_L.0" vType="car" speedFactor="0.94" vaporized="">
        <emissions CO_abs="5593.246345" CO2_abs="205287.839946" HC_abs="30.352335" PMx_abs="4.437645" NOx_abs="89.080524" fuel_abs="88.245311" electricity_abs="0"/>
    </tripinfo>
    <tripinfo id="W_L.0" depart="2.30" departLane="a4i_0" departPos="4.90" departSpeed="0.00" departDelay="1.10" arrival="65.80" arrivalLane="a3o_2" arrivalPos="178.50" arrivalSpeed="17.75" duration="63.50" routeLength="392.39" waitingTime="30.60" waitingCount="1" stopTime="0.00" timeLoss="40.95" rerouteNo="0" devices="tripinfo_W_L.0 emissions_W_L.0" vType="car" speedFactor="0.94" vaporized="">
        <emissions CO_abs="7855.958136" CO2_abs="243059.768569" HC_abs="41.511043" PMx_abs="5.335863" NOx_abs="105.949146" fuel_abs="104.482936" electricity_abs="0"/>
    </tripinfo>
    <tripinfo id="E_L.1" depart="30.20" departLane="a2i_0" departPos="4.90" departSpeed="0.00" departDelay="8.10" arrival="66.80" arrivalLane="a1o_2" arrivalPos="174.27" arrivalSpeed="19.00" duration="36.60" routeLength="393.74" waitingTime="0.10" waitingCount="1" stopTime="0.00" timeLoss="15.77" rerouteNo="0" devices="tripinfo_E_L.1 emissions_E_L.1" vType="car" speedFactor="1.01" vaporized="">
        <emissions CO_abs="3212.055571" CO2_abs="176571.108426" HC_abs="18.862368" PMx_abs="3.706982" NOx_abs="75.814203" fuel_abs="75.899909" electricity_abs="0"/>
    </tripinfo>
    <tripinfo id="E_L.2" depart="35.00" departLane="a2i_0" departPos="4.90" departSpeed="0.00" departDelay="7.10" arrival="69.20" arrivalLane="a1o_2" arrivalPos="174.27" arrivalSpeed="17.08" duration="34.20" routeLength="393.74" waitingTime="0.00" waitingCount="0" stopTime="0.00" timeLoss="11.05" rerouteNo="0" devices="tripinfo_E_L.2 emissions_E_L.2" vType="car" speedFactor="0.90" vaporized="">
        <emissions CO_abs="2647.624395" CO2_abs="151948.012148" HC_abs="15.649819" PMx_abs="3.061473" NOx_abs="64.498854" fuel_abs="65.315639" electricity_abs="0"/>
    </tripinfo>
    <tripinfo id="N_R.2" depart="47.20" departLane="a3i_0" departPos="4.90" departSpeed="0.00" departDelay="0.00" arrival="73.60" arrivalLane="a4o_0" arrivalPos="176.18" arrivalSpeed="19.89" duration="26.40" routeLength="365.95" waitingTime="0.00" waitingCount="0" stopTime="0.00" timeLoss="7.09" rerouteNo="0" devices="tripinfo_N_R.2 emissions_N_R.2" vType="car" speedFactor="1.06" vaporized="">
        <emissions CO_abs="2834.558007" CO2_abs="171445.310864" HC_abs="17.040551" PMx_abs="3.637042" NOx_abs="73.637241" fuel_abs="73.696283" electricity_abs="0"/>
    </tripinfo>
    <tripinfo id="E_R.1" depart="47.50" departLane="a2i_0" departPos="4.90" departSpeed="0.00" departDelay="10.30" arrival="74.60" arrivalLane="a3o_0" arrivalPos="178.50" arrivalSpeed="18.71" duration="27.10" routeLength="363.97" waitingTime="0.00" waitingCount="0" stopTime="0.00" timeLoss="7.24" rerouteNo="0" devices="tripinfo_E_R.1 emissions_E_R.1" vType="car" speedFactor="0.99" vaporized="">
        <emissions CO_abs="2626.724063" CO2_abs="158611.615869" HC_abs="15.769517" PMx_abs="3.315602" NOx_abs="67.835988" fuel_abs="68.179756" electricity_abs="0"/>
    </tripinfo>
    <tripinfo id="W_L.1" depart="47.90" departLane="a4i_0" departPos="4.90" departSpeed="0.00" departDelay="0.00" arrival="75.80" arrivalLane="a3o_2" arrivalPos="178.50" arrivalSpeed="18.65" duration="27.90" routeLength="392.39" waitingTime="0.00" waitingCount="0" stopTime="0.00" timeLoss="6.43" rerouteNo="0" devices="tripinfo_W_L.1 emissions_W_L.1" vType="car" speedFactor="0.98" vaporized="">
        <emissions CO_abs="2384.503713" CO2_abs="148687.299494" HC_abs="14.429516" PMx_abs="3.057449" NOx_abs="63.044319" fuel_abs="63.913789" electricity_abs="0"/>
    </tripinfo>
    <tripinfo id="N_R.3" depart="54.10" departLane="a3i_0" departPos="4.90" departSpeed="0.00" departDelay="2.20" arrival="81.00" arrivalLane="a4o_0" arrivalPos="176.18" arrivalSpeed="18.91" duration="26.90" routeLength="365.95" waitingTime="0.00" waitingCount="0" stopTime="0.00" timeLoss="7.00" rerouteNo="0" devices="tripinfo_N_R.3 emissions_N_R.3" vType="car" speedFactor="1.00" vaporized="">
        <emissions CO_abs="2727.739022" CO2_abs="165914.193980" HC_abs="16.410374" PMx_abs="3.497056" NOx_abs="71.172046" fuel_abs="71.318731" electricity_abs="0"/>
    </tripinfo>
    <tripinfo id="E_L.3" depart="54.40" departLane="a2i_0" departPos="4.90" departSpeed="0.00" departDelay="8.30" arrival="82.00" arrivalLane="a1o_2" arrivalPos="174.27" arrivalSpeed="18.48" duration="27.60" routeLength="393.74" waitingTime="0.00" waitingCount="0" stopTime="0.00" timeLoss="6.14" rerouteNo="0" devices="tripinfo_E_L.3 emissions_E_L.3" vType="car" speedFactor="0.97" vaporized="">
        <emissions CO_abs="2307.423313" CO2_abs="146654.041160" HC_abs="14.021743" PMx_abs="2.999462" NOx_abs="61.990791" fuel_abs="63.039779" electricity_abs="0"/>
    </tripinfo>
    <tripinfo id="E_L.4" depart="55.00" departLane="a2i_0" departPos="4.90" departSpeed="0.00" departDelay="4.80" arrival="83.90" arrivalLane="a1o_2" arrivalPos="174.27" arrivalSpeed="19.95" duration="28.90" routeLength="393.74" waitingTime="0.00" waitingCount="0" stopTime="0.00" timeLoss="8.75" rerouteNo="0" devices="tripinfo_E_L.4 emissions_E_L.4" vType="car" speedFactor="1.09" vaporized="">
        <emissions CO_abs="2656.627785" CO2_abs="161225.091822" HC_abs="15.968415" PMx_abs="3.360501" NOx_abs="68.681227" fuel_abs="69.303193" electricity_abs="0"/>
    </tripinfo>
    <tripinfo id="S_R.2" depart="61.00" departLane="a1i_0" departPos="4.90" departSpeed="0.00" departDelay="0.00" arrival="87.70" arrivalLane="a2o_0" arrivalPos="181.00" arrivalSpeed="19.95" duration="26.70" routeLength="371.93" waitingTime="0.00" waitingCount="0" stopTime="0.00" timeLoss="7.27" rerouteNo="0" devices="tripinfo_S_R.2 emissions_S_R.2" vType="car" speedFactor="1.10" vaporized="">
        <emissions CO_abs="2891.287027" CO2_abs="175965.847062" HC_abs="17.414138" PMx_abs="3.742634" NOx_abs="75.643145" fuel_abs="75.639420" electricity_abs="0"/>
    </tripinfo>
    <tripinfo id="N_R.4" depart="63.80" departLane="a3i_0" departPos="4.90" departSpeed="0.00" departDelay="9.20" arrival="93.00" arrivalLane="a4o_0" arrivalPos="176.18" arrivalSpeed="15.73" duration="29.20" routeLength="365.95" waitingTime="0.00" waitingCount="0" stopTime="0.00" timeLoss="5.38" rerouteNo="0" devices="tripinfo_N_R.4 emissions_N_R.4" vType="car" speedFactor="0.83" vaporized="">
        <emissions CO_abs="1954.771210" CO2_abs="123249.425366" HC_abs="11.782936" PMx_abs="2.389394" NOx_abs="51.467433" fuel_abs="52.979402" electricity_abs="0"/>
    </tripinfo>
    <tripinfo id="N_S.1" depart="25.80" departLane="a3i_0" departPos="4.90" departSpeed="0.00" departDelay="0.00" arrival="100.50" arrivalLane="a1o_2" arrivalPos="174.27" arrivalSpeed="19.49" duration="74.70" routeLength="393.21" waitingTime="44.00" waitingCount="1" stopTime="0.00" timeLoss="54.45" rerouteNo="0" devices="tripinfo_N_S.1 emissions_N_S.1" vType="car" speedFactor="1.03" vaporized="">
        <emissions CO_abs="10209.288733" CO2_abs="288739.265855" HC_abs="53.373760" PMx_abs="6.532288" NOx_abs="126.977602" fuel_abs="124.119441" electricity_abs="0"/>
    </tripinfo>
    <tripinfo id="S_S.1" depart="6.90" departLane="a1i_0" departPos="4.90" departSpeed="0.00" departDelay="0.00" arrival="100.80" arrivalLane="a3o_1" arrivalPos="178.50" arrivalSpeed="19.98" duration="93.90" routeLength="396.73" waitingTime="63.20" waitingCount="1" stopTime="0.00" timeLoss="73.79" rerouteNo="0" devices="tripinfo_S_S.1 emissions_S_S.1" vType="car" speedFactor="1.09" vaporized="">
        <emissions CO_abs="13385.687420" CO2_abs="339545.279010" HC_abs="69.031616" PMx_abs="7.826782" NOx_abs="150.464467" fuel_abs="145.960200" electricity_abs="0"/>
    </tripinfo>
    <tripinfo id="N_S.0" depart="12.60" departLane="a3i_0" departPos="4.90" departSpeed="0.00" departDelay="0.00" arrival="101.20" arrivalLane="a1o_1" arrivalPos="174.27" arrivalSpeed="17.72" duration="88.60" routeLength="393.21" waitingTime="57.40" waitingCount="1" stopTime="0.00" timeLoss="66.61" rerouteNo="0" devices="tripinfo_N_S.0 emissions_N_S.0" vType="car" speedFactor="0.94" vaporized="">
        <emissions CO_abs="11976.341604" CO2_abs="299860.035436" HC_abs="61.598777" PMx_abs="6.822179" NOx_abs="132.286518" fuel_abs="128.900982" electricity_abs="0"/>
    </tripinfo>
    <tripinfo id="N_R.5" depart="74.90" departLane="a3i_0" departPos="4.90" departSpeed="0.00" departDelay="4.60" arrival="101.30" arrivalLane="a4o_0" arrivalPos="176.18" arrivalSpeed="19.98" duration="26.40" routeLength="365.95" waitingTime="0.00" waitingCount="0" stopTime="0.00" timeLoss="7.18" rerouteNo="0" devices="tripinfo_N_R.5 emissions_N_R.5" vType="car" speedFactor="1.10" vaporized="">
        <emissions CO_abs="2842.104589" CO2_abs="172694.982274" HC_abs="17.108861" PMx_abs="3.665098" NOx_abs="74.180308" fuel_abs="74.233446" electricity_abs="0"/>
    </tripinfo>
    <tripinfo id="S_S.3" depart="11.50" departLane="a1i_0" departPos="4.90" departSpeed="0.00" departDelay="1.20" arrival="102.10" arrivalLane="a3o_2" arrivalPos="178.50" arrivalSpeed="18.72" duration="90.60" routeLength="396.73" waitingTime="56.20" waitingCount="1" stopTime="0.00" timeLoss="69.68" rerouteNo="0" devices="tripinfo_S_S.3 emissions_S_S.3" vType="car" speedFactor="0.99" vaporized="">
        <emissions CO_abs="10965.463849" CO2_abs="292048.895603" HC_abs="56.857346" PMx_abs="6.639216" NOx_abs="128.811950" fuel_abs="125.542617" electricity_abs="0"/>
    </tripinfo>
    <tripinfo id="N_S.2" depart="28.20" departLane="a3i_0" departPos="4.90" departSpeed="0.00" departDelay="1.80" arrival="102.30" arrivalLane="a1o_1" arrivalPos="174.27" arrivalSpeed="18.07" duration="74.10" routeLength="393.21" waitingTime="39.40" waitingCount="1" stopTime="0.00" timeLoss="52.64" rerouteNo="0" devices="tripinfo_N_S.2 emissions_N_S.2" vType="car" speedFactor="0.96" vaporized="">
        <emissions CO_abs="8016.765205" CO2_abs="237958.145623" HC_abs="42.166495" PMx_abs="5.289813" NOx_abs="104.170108" fuel_abs="102.290110" electricity_abs="0"/>
    </tripinfo>
    <tripinfo id="S_S.0" depart="3.00" departLane="a1i_0" departPos="4.90" departSpeed="0.00" departDelay="0.00" arrival="103.10" arrivalLane="a3o_1" arrivalPos="178.50" arrivalSpeed="15.78" duration="100.10" routeLength="396.73" waitingTime="66.70" waitingCount="1" stopTime="0.00" timeLoss="75.08" rerouteNo="0" devices="tripinfo_S_S.0 emissions_S_S.0" vType="car" speedFactor="0.83" vaporized="">
        <emissions CO_abs="13191.769017" CO2_abs="307567.509160" HC_abs="67.257889" PMx_abs="6.958974" NOx_abs="135.617503" fuel_abs="132.215010" electricity_abs="0"/>
    </tripinfo>
    <tripinfo id="N_S.3" depart="31.30" departLane="a3i_0" departPos="4.90" departSpeed="0.00" departDelay="3.10" arrival="103.20" arrivalLane="a1o_2" arrivalPos="174.27" arrivalSpeed="16.10" duration="71.90" routeLength="393.21" waitingTime="35.80" waitingCount="1" stopTime="0.00" timeLoss="47.73" rerouteNo="0" devices="tripinfo_N_S.3 emissions_N_S.3" vType="car" speedFactor="0.85" vaporized="">